,DOI,Year,Journal,Membrane,MWCO,Membrane type,Solute,Solute W conc,Solute M conc,Solvent,Solvent Mw,Solvent diameter,Solvent viscosity,Solvent molar volume,Density,H1,H2,H3,H4,Livingston parameter,Pressure,Flux,Permeance,measured_rejection,Unnamed: 24,solvent_smiles,Temperature,Process configuration,solute_smiles,full_smiles
70,10.1016/j.memsci.2018.12.077,2019,Journal of Membrane Science,DM300,300,,1200.0,1.0,0.000833,IPA,60.1,0.624,1.96,76.46,0.786,15.8,6.1,16.4,23.58,7.98,40.0,,,86.4,0.86,CC(O)C,25.0,CF,O=C(C(CC(CC(C(OC)=O)C)(C(OC)=O)C)(CC(C(OC)=O)(CC(C(OC)=O)(CC(C(OC)=O)(CC(C(OC)=O)(CC(C(OC)=O)(CC(C(OC)=O)(CC(C(OC)=O)(CC(C(OC)=O)(CC(C(OC)=O)(C)C)C)C)C)C)C)C)C)C)C)OC,O=C(C(CC(CC(C(OC)=O)C)(C(OC)=O)C)(CC(C(OC)=O)(CC(C(OC)=O)(CC(C(OC)=O)(CC(C(OC)=O)(CC(C(OC)=O)(CC(C(OC)=O)(CC(C(OC)=O)(CC(C(OC)=O)(CC(C(OC)=O)(C)C)C)C)C)C)C)C)C)C)C)OC.CC(O)C
71,10.1016/j.memsci.2018.12.077,2019,Journal of Membrane Science,DM300,300,,254.5,1.0,0.003929,EtOH,46.1,0.52,1.07,44.13,1.044,18.4,6.3,13.7,23.79,21.71,40.0,28.1,0.7,86.7,0.87,CCO,25.0,CF,CCCCCCCCCCCCCCCCCC,CCCCCCCCCCCCCCCCCC.CCO
72,10.1016/j.memsci.2016.10.015,2017,,DM300,300,,,220.0,,DMF,73.1,0.626,0.8,77.1,0.948,17.4,13.7,11.3,24.86,43.58,30.0,,,86.78,0.87,O=CN(C)C,,CF,CC(C1=CC=CC=C1)CC(C2=CC=CC=C2)CC(C3=CC=CC=C3)CC(C4=CC=CC=C4)CC(C5=CC=CC=C5)CC(C)(C)C6=CC=CC=C6,CC(C1=CC=CC=C1)CC(C2=CC=CC=C2)CC(C3=CC=CC=C3)CC(C4=CC=CC=C4)CC(C5=CC=CC=C5)CC(C)(C)C6=CC=CC=C6.O=CN(C)C
73,10.1016/j.memsci.2018.12.077,2019,Journal of Membrane Science,DM300,300,,678.6,1.0,0.001474,EtOH,46.1,0.52,1.07,44.13,1.044,18.4,6.3,13.7,23.79,21.71,20.0,14.0,0.7,86.8,0.87,CCO,25.0,CF,CC(=O)OCC1C(C(C(C(O1)OC2(C(C(C(O2)COC(=O)C)OC(=O)C)OC(=O)C)COC(=O)C)OC(=O)C)OC(=O)C)OC(=O)C,CC(=O)OCC1C(C(C(C(O1)OC2(C(C(C(O2)COC(=O)C)OC(=O)C)OC(=O)C)COC(=O)C)OC(=O)C)OC(=O)C)OC(=O)C.CCO
74,10.1016/j.memsci.2018.12.077,2019,Journal of Membrane Science,DM300,300,,700.0,1.0,0.001429,IPA,60.1,0.624,1.96,76.46,0.786,15.8,6.1,16.4,23.58,7.98,20.0,,,86.8,0.87,CC(O)C,25.0,CF,O=C(C(CC(CC(C(OC)=O)C)(C(OC)=O)C)(CC(C(OC)=O)(CC(C(OC)=O)(CC(C(OC)=O)(CC(C(OC)=O)(C)C)C)C)C)C)OC,O=C(C(CC(CC(C(OC)=O)C)(C(OC)=O)C)(CC(C(OC)=O)(CC(C(OC)=O)(CC(C(OC)=O)(CC(C(OC)=O)(C)C)C)C)C)C)OC.CC(O)C
75,10.1016/j.memsci.2018.12.077,2019,Journal of Membrane Science,DM300,300,,800.0,1.0,0.00125,IPA,60.1,0.624,1.96,76.46,0.786,15.8,6.1,16.4,23.58,7.98,20.0,,,86.8,0.87,CC(O)C,25.0,CF,O=C(C(CC(CC(C(OC)=O)C)(C(OC)=O)C)(CC(C(OC)=O)(CC(C(OC)=O)(CC(C(OC)=O)(CC(C(OC)=O)(CC(C(OC)=O)(C)C)C)C)C)C)C)OC,O=C(C(CC(CC(C(OC)=O)C)(C(OC)=O)C)(CC(C(OC)=O)(CC(C(OC)=O)(CC(C(OC)=O)(CC(C(OC)=O)(CC(C(OC)=O)(C)C)C)C)C)C)C)OC.CC(O)C
76,10.1016/j.memsci.2018.12.077,2019,Journal of Membrane Science,DM300,300,,1000.0,1.0,0.001,IPA,60.1,0.624,1.96,76.46,0.786,15.8,6.1,16.4,23.58,7.98,40.0,,,86.9,0.87,CC(O)C,25.0,CF,O=C(C(CC(CC(C(OC)=O)C)(C(OC)=O)C)(CC(C(OC)=O)(CC(C(OC)=O)(CC(C(OC)=O)(CC(C(OC)=O)(CC(C(OC)=O)(CC(C(OC)=O)(CC(C(OC)=O)(C)C)C)C)C)C)C)C)C)OC,O=C(C(CC(CC(C(OC)=O)C)(C(OC)=O)C)(CC(C(OC)=O)(CC(C(OC)=O)(CC(C(OC)=O)(CC(C(OC)=O)(CC(C(OC)=O)(CC(C(OC)=O)(CC(C(OC)=O)(C)C)C)C)C)C)C)C)C)OC.CC(O)C
77,10.1016/j.memsci.2018.12.077,2019,Journal of Membrane Science,DM300,300,,500.0,1.0,0.002,IPA,60.1,0.624,1.96,76.46,0.786,15.8,6.1,16.4,23.58,7.98,30.0,,,87.1,0.87,CC(O)C,25.0,CF,O=C(C(CC(CC(C(OC)=O)C)(C(OC)=O)C)(CC(C(OC)=O)(CC(C(OC)=O)(C)C)C)C)OC,O=C(C(CC(CC(C(OC)=O)C)(C(OC)=O)C)(CC(C(OC)=O)(CC(C(OC)=O)(C)C)C)C)OC.CC(O)C
78,10.1016/j.memsci.2018.12.077,2019,Journal of Membrane Science,DM300,300,,700.0,1.0,0.001429,IPA,60.1,0.624,1.96,76.46,0.786,15.8,6.1,16.4,23.58,7.98,30.0,,,87.5,0.88,CC(O)C,25.0,CF,O=C(C(CC(CC(C(OC)=O)C)(C(OC)=O)C)(CC(C(OC)=O)(CC(C(OC)=O)(CC(C(OC)=O)(CC(C(OC)=O)(C)C)C)C)C)C)OC,O=C(C(CC(CC(C(OC)=O)C)(C(OC)=O)C)(CC(C(OC)=O)(CC(C(OC)=O)(CC(C(OC)=O)(CC(C(OC)=O)(C)C)C)C)C)C)OC.CC(O)C
79,10.1016/j.memsci.2018.12.077,2019,Journal of Membrane Science,DM300,300,,900.0,1.0,0.001111,EtOH,46.1,0.52,1.07,44.13,1.044,18.4,6.3,13.7,23.79,21.71,20.0,14.0,0.7,87.7,0.88,CCO,25.0,CF,O=C(C(CC(CC(C(OC)=O)C)(C(OC)=O)C)(CC(C(OC)=O)(CC(C(OC)=O)(CC(C(OC)=O)(CC(C(OC)=O)(CC(C(OC)=O)(CC(C(OC)=O)(C)C)C)C)C)C)C)C)OC,O=C(C(CC(CC(C(OC)=O)C)(C(OC)=O)C)(CC(C(OC)=O)(CC(C(OC)=O)(CC(C(OC)=O)(CC(C(OC)=O)(CC(C(OC)=O)(CC(C(OC)=O)(C)C)C)C)C)C)C)C)OC.CCO
80,10.1002/cssc.201100355,2012,ChemSusChem,DM300,300,,690.0,0.000715,1e-06,AcMe,58.1,0.618,0.3,74.08,0.784,15.5,10.4,7.0,19.94,92.36,30.0,74.3,2.48,87.8,0.88,CC(C)=O,25.0,CF,CC(O[Pd]([P](C1=CC=CC=C1)(C2=CC=CC=C2)C3=CC=CC=C3)[P](C4=CC=CC=C4)(C5=CC=CC=C5)C6=CC=CC=C6)=O,CC(O[Pd]([P](C1=CC=CC=C1)(C2=CC=CC=C2)C3=CC=CC=C3)[P](C4=CC=CC=C4)(C5=CC=CC=C5)C6=CC=CC=C6)=O.CC(C)=O
81,10.1016/j.cherd.2010.07.002,2011,chemical engineering research and design,DM300,300,,180.2,0.1,0.000555,EtOH,46.1,0.52,1.07,44.13,1.044,18.4,6.3,13.7,23.79,21.71,20.0,24.4,1.22,87.8,0.88,CCO,25.0,CF,C1=CC(=C(C=C1/C=C/C(=O)O)O)O,C1=CC(=C(C=C1/C=C/C(=O)O)O)O.CCO
82,10.1016/j.memsci.2018.12.077,2019,Journal of Membrane Science,DM300,300,,300.0,1.0,0.003333,EtOH,46.1,0.52,1.07,44.13,1.044,18.4,6.3,13.7,23.79,21.71,20.0,14.0,0.7,88.0,0.88,CCO,25.0,CF,O=C(OC)C(C)(CC(C)(CC(C)C(OC)=O)C(OC)=O)C,O=C(OC)C(C)(CC(C)(CC(C)C(OC)=O)C(OC)=O)C.CCO
83,10.1016/j.memsci.2018.12.077,2019,Journal of Membrane Science,DM300,300,,900.0,1.0,0.001111,IPA,60.1,0.624,1.96,76.46,0.786,15.8,6.1,16.4,23.58,7.98,40.0,,,88.3,0.88,CC(O)C,25.0,CF,O=C(C(CC(CC(C(OC)=O)C)(C(OC)=O)C)(CC(C(OC)=O)(CC(C(OC)=O)(CC(C(OC)=O)(CC(C(OC)=O)(CC(C(OC)=O)(CC(C(OC)=O)(C)C)C)C)C)C)C)C)OC,O=C(C(CC(CC(C(OC)=O)C)(C(OC)=O)C)(CC(C(OC)=O)(CC(C(OC)=O)(CC(C(OC)=O)(CC(C(OC)=O)(CC(C(OC)=O)(CC(C(OC)=O)(C)C)C)C)C)C)C)C)OC.CC(O)C
84,10.1016/j.memsci.2018.12.077,2019,Journal of Membrane Science,DM300,300,,600.0,1.0,0.001667,IPA,60.1,0.624,1.96,76.46,0.786,15.8,6.1,16.4,23.58,7.98,30.0,,,88.7,0.89,CC(O)C,25.0,CF,O=C(C(CC(CC(C(OC)=O)C)(C(OC)=O)C)(CC(C(OC)=O)(CC(C(OC)=O)(CC(C(OC)=O)(C)C)C)C)C)OC,O=C(C(CC(CC(C(OC)=O)C)(C(OC)=O)C)(CC(C(OC)=O)(CC(C(OC)=O)(CC(C(OC)=O)(C)C)C)C)C)OC.CC(O)C
85,10.1016/j.memsci.2018.12.077,2019,Journal of Membrane Science,DM300,300,,800.0,1.0,0.00125,IPA,60.1,0.624,1.96,76.46,0.786,15.8,6.1,16.4,23.58,7.98,30.0,,,88.9,0.89,CC(O)C,25.0,CF,O=C(C(CC(CC(C(OC)=O)C)(C(OC)=O)C)(CC(C(OC)=O)(CC(C(OC)=O)(CC(C(OC)=O)(CC(C(OC)=O)(CC(C(OC)=O)(C)C)C)C)C)C)C)OC,O=C(C(CC(CC(C(OC)=O)C)(C(OC)=O)C)(CC(C(OC)=O)(CC(C(OC)=O)(CC(C(OC)=O)(CC(C(OC)=O)(CC(C(OC)=O)(C)C)C)C)C)C)C)OC.CC(O)C
86,10.1016/j.memsci.2016.10.015,2017,,DM300,300,,,220.0,,DMF,73.1,0.626,0.8,77.1,0.948,17.4,13.7,11.3,24.86,43.58,30.0,,,89.13,0.89,O=CN(C)C,,CF,CC(C1=CC=CC=C1)CC(C2=CC=CC=C2)CC(C3=CC=CC=C3)CC(C4=CC=CC=C4)CC(C5=CC=CC=C5)CC(C6=CC=CC=C6)CC(C)(C)C7=CC=CC=C7,CC(C1=CC=CC=C1)CC(C2=CC=CC=C2)CC(C3=CC=CC=C3)CC(C4=CC=CC=C4)CC(C5=CC=CC=C5)CC(C6=CC=CC=C6)CC(C)(C)C7=CC=CC=C7.O=CN(C)C
87,10.1016/j.memsci.2018.12.077,2019,Journal of Membrane Science,DM300,300,,200.0,1.0,0.005,EtOH,46.1,0.52,1.07,44.13,1.044,18.4,6.3,13.7,23.79,21.71,30.0,21.1,0.7,89.2,0.89,CCO,25.0,CF,CC1(C(OC)=O)CCC1(C(OC)=O)C,CC1(C(OC)=O)CCC1(C(OC)=O)C.CCO
88,10.1016/j.memsci.2018.12.077,2019,Journal of Membrane Science,DM300,300,,400.0,1.0,0.0025,IPA,60.1,0.624,1.96,76.46,0.786,15.8,6.1,16.4,23.58,7.98,40.0,,,89.5,0.9,CC(O)C,25.0,CF,O=C(OC)C(C)(CC(C)(CC(C)C(OC)=O)C(OC)=O)CC(C)(C(OC)=O)C,O=C(OC)C(C)(CC(C)(CC(C)C(OC)=O)C(OC)=O)CC(C)(C(OC)=O)C.CC(O)C
89,10.1016/j.memsci.2018.12.077,2019,Journal of Membrane Science,DM300,300,,800.0,1.0,0.00125,IPA,60.1,0.624,1.96,76.46,0.786,15.8,6.1,16.4,23.58,7.98,40.0,,,89.6,0.9,CC(O)C,25.0,CF,O=C(C(CC(CC(C(OC)=O)C)(C(OC)=O)C)(CC(C(OC)=O)(CC(C(OC)=O)(CC(C(OC)=O)(CC(C(OC)=O)(CC(C(OC)=O)(C)C)C)C)C)C)C)OC,O=C(C(CC(CC(C(OC)=O)C)(C(OC)=O)C)(CC(C(OC)=O)(CC(C(OC)=O)(CC(C(OC)=O)(CC(C(OC)=O)(CC(C(OC)=O)(C)C)C)C)C)C)C)OC.CC(O)C
90,10.1016/j.memsci.2018.12.077,2019,Journal of Membrane Science,DM300,300,,500.0,1.0,0.002,IPA,60.1,0.624,1.96,76.46,0.786,15.8,6.1,16.4,23.58,7.98,40.0,,,89.7,0.9,CC(O)C,25.0,CF,O=C(C(CC(CC(C(OC)=O)C)(C(OC)=O)C)(CC(C(OC)=O)(CC(C(OC)=O)(C)C)C)C)OC,O=C(C(CC(CC(C(OC)=O)C)(C(OC)=O)C)(CC(C(OC)=O)(CC(C(OC)=O)(C)C)C)C)OC.CC(O)C
91,10.1016/j.memsci.2018.12.077,2019,Journal of Membrane Science,DM300,300,,600.0,1.0,0.001667,IPA,60.1,0.624,1.96,76.46,0.786,15.8,6.1,16.4,23.58,7.98,40.0,,,90.0,0.9,CC(O)C,25.0,CF,O=C(C(CC(CC(C(OC)=O)C)(C(OC)=O)C)(CC(C(OC)=O)(CC(C(OC)=O)(CC(C(OC)=O)(C)C)C)C)C)OC,O=C(C(CC(CC(C(OC)=O)C)(C(OC)=O)C)(CC(C(OC)=O)(CC(C(OC)=O)(CC(C(OC)=O)(C)C)C)C)C)OC.CC(O)C
92,10.1021/acssuschemeng.5b00734,2015,ASCECG,DM300,300,,370.0,55.5,0.15,EtOH,46.1,0.52,1.07,44.13,1.044,18.4,6.3,13.7,23.79,21.71,30.0,9.8,0.33,90.0,0.9,CCO,23.0,CF,OCC[P](CCCC)(CCCC)CCCC.[I],OCC[P](CCCC)(CCCC)CCCC.[I].CCO
93,10.1016/j.memsci.2017.05.003,2017,Journal of Membrane Science,DM300,300,,327.0,11.4,0.034862,MeCN,41.1,0.55,0.37,52.23,0.786,15.3,18.0,6.1,24.4,160.91,40.0,146.5,3.66,90.2,0.9,CC#N,25.0,DE,CN(C)C1=CC=C(C=C1)N=NC2=CC=C(C=C2)S(=O)(=O)[O-].[Na+],CN(C)C1=CC=C(C=C1)N=NC2=CC=C(C=C2)S(=O)(=O)[O-].[Na+].CC#N
94,10.1016/j.memsci.2018.12.077,2019,Journal of Membrane Science,DM300,300,,300.0,1.0,0.003333,IPA,60.1,0.624,1.96,76.46,0.786,15.8,6.1,16.4,23.58,7.98,40.0,,,90.3,0.9,CC(O)C,25.0,CF,O=C(OC)C(C)(CC(C)(CC(C)C(OC)=O)C(OC)=O)C,O=C(OC)C(C)(CC(C)(CC(C)C(OC)=O)C(OC)=O)C.CC(O)C
95,10.1016/j.memsci.2018.12.077,2019,Journal of Membrane Science,DM300,300,,700.0,1.0,0.001429,IPA,60.1,0.624,1.96,76.46,0.786,15.8,6.1,16.4,23.58,7.98,40.0,,,90.4,0.9,CC(O)C,25.0,CF,O=C(C(CC(CC(C(OC)=O)C)(C(OC)=O)C)(CC(C(OC)=O)(CC(C(OC)=O)(CC(C(OC)=O)(CC(C(OC)=O)(C)C)C)C)C)C)OC,O=C(C(CC(CC(C(OC)=O)C)(C(OC)=O)C)(CC(C(OC)=O)(CC(C(OC)=O)(CC(C(OC)=O)(CC(C(OC)=O)(C)C)C)C)C)C)OC.CC(O)C
96,10.1016/j.memsci.2018.12.077,2019,Journal of Membrane Science,DM300,300,,700.0,1.0,0.001429,EtOH,46.1,0.52,1.07,44.13,1.044,18.4,6.3,13.7,23.79,21.71,30.0,21.1,0.7,90.5,0.91,CCO,25.0,CF,O=C(C(CC(CC(C(OC)=O)C)(C(OC)=O)C)(CC(C(OC)=O)(CC(C(OC)=O)(CC(C(OC)=O)(CC(C(OC)=O)(C)C)C)C)C)C)OC,O=C(C(CC(CC(C(OC)=O)C)(C(OC)=O)C)(CC(C(OC)=O)(CC(C(OC)=O)(CC(C(OC)=O)(CC(C(OC)=O)(C)C)C)C)C)C)OC.CCO
97,10.1016/j.cherd.2010.07.002,2011,chemical engineering research and design,DM300,300,,180.2,0.1,0.000555,EtOH,46.1,0.52,1.07,44.13,1.044,18.4,6.3,13.7,23.79,21.71,40.0,41.1,1.03,90.7,0.91,CCO,25.0,CF,C1=CC(=C(C=C1/C=C/C(=O)O)O)O,C1=CC(=C(C=C1/C=C/C(=O)O)O)O.CCO
98,10.1016/j.memsci.2018.12.077,2019,Journal of Membrane Science,DM300,300,,600.0,1.0,0.001667,EtOH,46.1,0.52,1.07,44.13,1.044,18.4,6.3,13.7,23.79,21.71,20.0,14.0,0.7,91.2,0.91,CCO,25.0,CF,O=C(C(CC(CC(C(OC)=O)C)(C(OC)=O)C)(CC(C(OC)=O)(CC(C(OC)=O)(CC(C(OC)=O)(C)C)C)C)C)OC,O=C(C(CC(CC(C(OC)=O)C)(C(OC)=O)C)(CC(C(OC)=O)(CC(C(OC)=O)(CC(C(OC)=O)(C)C)C)C)C)OC.CCO
99,10.1016/j.memsci.2018.12.077,2019,Journal of Membrane Science,DM300,300,,700.0,1.0,0.001429,EtOH,46.1,0.52,1.07,44.13,1.044,18.4,6.3,13.7,23.79,21.71,20.0,14.0,0.7,91.3,0.91,CCO,25.0,CF,O=C(C(CC(CC(C(OC)=O)C)(C(OC)=O)C)(CC(C(OC)=O)(CC(C(OC)=O)(CC(C(OC)=O)(CC(C(OC)=O)(C)C)C)C)C)C)OC,O=C(C(CC(CC(C(OC)=O)C)(C(OC)=O)C)(CC(C(OC)=O)(CC(C(OC)=O)(CC(C(OC)=O)(CC(C(OC)=O)(C)C)C)C)C)C)OC.CCO
100,10.1016/j.memsci.2018.12.077,2019,Journal of Membrane Science,DM300,300,,678.6,1.0,0.001474,EtOH,46.1,0.52,1.07,44.13,1.044,18.4,6.3,13.7,23.79,21.71,30.0,21.1,0.7,91.4,0.91,CCO,25.0,CF,CC(=O)OCC1C(C(C(C(O1)OC2(C(C(C(O2)COC(=O)C)OC(=O)C)OC(=O)C)COC(=O)C)OC(=O)C)OC(=O)C)OC(=O)C,CC(=O)OCC1C(C(C(C(O1)OC2(C(C(C(O2)COC(=O)C)OC(=O)C)OC(=O)C)COC(=O)C)OC(=O)C)OC(=O)C)OC(=O)C.CCO
101,10.1016/j.memsci.2018.12.077,2019,Journal of Membrane Science,DM300,300,,800.0,1.0,0.00125,EtOH,46.1,0.52,1.07,44.13,1.044,18.4,6.3,13.7,23.79,21.71,20.0,14.0,0.7,92.0,0.92,CCO,25.0,CF,O=C(C(CC(CC(C(OC)=O)C)(C(OC)=O)C)(CC(C(OC)=O)(CC(C(OC)=O)(CC(C(OC)=O)(CC(C(OC)=O)(CC(C(OC)=O)(C)C)C)C)C)C)C)OC,O=C(C(CC(CC(C(OC)=O)C)(C(OC)=O)C)(CC(C(OC)=O)(CC(C(OC)=O)(CC(C(OC)=O)(CC(C(OC)=O)(CC(C(OC)=O)(C)C)C)C)C)C)C)OC.CCO
102,10.1016/j.jfoodeng.2010.07.020,2011,Journal of Food Engineering,DM300,300,,603.0,0.3,0.000498,EtOAc,88.1,0.677,0.46,97.68,0.902,15.8,5.3,7.2,18.15,25.1,5.0,2.0,0.4,92.1,0.92,CC(OCC)=O,30.0,CF,CC(CCC=C(C)C)C1CCC2(C1(CCC34C2CCC5C3(C4)CCC(C5(C)C)OC(=O)C=CC6=CC(=C(C=C6)O)OC)C)C,CC(CCC=C(C)C)C1CCC2(C1(CCC34C2CCC5C3(C4)CCC(C5(C)C)OC(=O)C=CC6=CC(=C(C=C6)O)OC)C)C.CC(OCC)=O
103,10.1016/j.memsci.2018.12.077,2019,Journal of Membrane Science,DM300,300,,678.6,1.0,0.001474,EtOH,46.1,0.52,1.07,44.13,1.044,18.4,6.3,13.7,23.79,21.71,40.0,28.1,0.7,92.2,0.92,CCO,25.0,CF,CC(=O)OCC1C(C(C(C(O1)OC2(C(C(C(O2)COC(=O)C)OC(=O)C)OC(=O)C)COC(=O)C)OC(=O)C)OC(=O)C)OC(=O)C,CC(=O)OCC1C(C(C(C(O1)OC2(C(C(C(O2)COC(=O)C)OC(=O)C)OC(=O)C)COC(=O)C)OC(=O)C)OC(=O)C)OC(=O)C.CCO
104,10.1016/j.memsci.2018.12.077,2019,Journal of Membrane Science,DM300,300,,500.0,1.0,0.002,EtOH,46.1,0.52,1.07,44.13,1.044,18.4,6.3,13.7,23.79,21.71,20.0,14.0,0.7,92.3,0.92,CCO,25.0,CF,O=C(C(CC(CC(C(OC)=O)C)(C(OC)=O)C)(CC(C(OC)=O)(CC(C(OC)=O)(C)C)C)C)OC,O=C(C(CC(CC(C(OC)=O)C)(C(OC)=O)C)(CC(C(OC)=O)(CC(C(OC)=O)(C)C)C)C)OC.CCO
105,10.1016/j.memsci.2016.10.015,2017,,DM300,300,,,220.0,,DMF,73.1,0.626,0.8,77.1,0.948,17.4,13.7,11.3,24.86,43.58,30.0,,,92.51,0.93,O=CN(C)C,,CF,CC(C1=CC=CC=C1)CC(C2=CC=CC=C2)CC(C3=CC=CC=C3)CC(C4=CC=CC=C4)CC(C5=CC=CC=C5)CC(C6=CC=CC=C6)CC(C7=CC=CC=C7)CC(C)(C)C8=CC=CC=C8,CC(C1=CC=CC=C1)CC(C2=CC=CC=C2)CC(C3=CC=CC=C3)CC(C4=CC=CC=C4)CC(C5=CC=CC=C5)CC(C6=CC=CC=C6)CC(C7=CC=CC=C7)CC(C)(C)C8=CC=CC=C8.O=CN(C)C
106,10.1016/j.memsci.2016.10.015,2017,,DM300,300,,,220.0,,DMF,73.1,0.626,0.8,77.1,0.948,17.4,13.7,11.3,24.86,43.58,30.0,,,93.1,0.93,O=CN(C)C,,CF,CC(C1=CC=CC=C1)CC(C2=CC=CC=C2)CC(C)(C)C3=CC=CC=C3,CC(C1=CC=CC=C1)CC(C2=CC=CC=C2)CC(C)(C)C3=CC=CC=C3.O=CN(C)C
107,10.1016/j.memsci.2018.12.077,2019,Journal of Membrane Science,DM300,300,,300.0,1.0,0.003333,EtOH,46.1,0.52,1.07,44.13,1.044,18.4,6.3,13.7,23.79,21.71,30.0,21.1,0.7,93.3,0.93,CCO,25.0,CF,O=C(OC)C(C)(CC(C)(CC(C)C(OC)=O)C(OC)=O)C,O=C(OC)C(C)(CC(C)(CC(C)C(OC)=O)C(OC)=O)C.CCO
108,10.1016/j.memsci.2018.12.077,2019,Journal of Membrane Science,DM300,300,,800.0,1.0,0.00125,EtOH,46.1,0.52,1.07,44.13,1.044,18.4,6.3,13.7,23.79,21.71,30.0,21.1,0.7,93.4,0.93,CCO,25.0,CF,O=C(C(CC(CC(C(OC)=O)C)(C(OC)=O)C)(CC(C(OC)=O)(CC(C(OC)=O)(CC(C(OC)=O)(CC(C(OC)=O)(CC(C(OC)=O)(C)C)C)C)C)C)C)OC,O=C(C(CC(CC(C(OC)=O)C)(C(OC)=O)C)(CC(C(OC)=O)(CC(C(OC)=O)(CC(C(OC)=O)(CC(C(OC)=O)(CC(C(OC)=O)(C)C)C)C)C)C)C)OC.CCO
109,10.1016/j.memsci.2016.10.015,2017,,DM300,300,,,220.0,,DMF,73.1,0.626,0.8,77.1,0.948,17.4,13.7,11.3,24.86,43.58,30.0,,,93.54,0.94,O=CN(C)C,,CF,CC(C1=CC=CC=C1)CC(C2=CC=CC=C2)CC(C3=CC=CC=C3)CC(C4=CC=CC=C4)CC(C5=CC=CC=C5)CC(C6=CC=CC=C6)CC(C7=CC=CC=C7)CC(C8=CC=CC=C8)CC(C)(C)C9=CC=CC=C9,CC(C1=CC=CC=C1)CC(C2=CC=CC=C2)CC(C3=CC=CC=C3)CC(C4=CC=CC=C4)CC(C5=CC=CC=C5)CC(C6=CC=CC=C6)CC(C7=CC=CC=C7)CC(C8=CC=CC=C8)CC(C)(C)C9=CC=CC=C9.O=CN(C)C
110,10.1016/j.memsci.2018.12.077,2019,Journal of Membrane Science,DM300,300,,200.0,1.0,0.005,EtOH,46.1,0.52,1.07,44.13,1.044,18.4,6.3,13.7,23.79,21.71,40.0,28.1,0.7,93.9,0.94,CCO,25.0,CF,CC1(C(OC)=O)CCC1(C(OC)=O)C,CC1(C(OC)=O)CCC1(C(OC)=O)C.CCO
111,10.1016/j.cherd.2010.07.002,2011,chemical engineering research and design,DM300,300,,360.3,0.5,0.001388,EtOH,46.1,0.52,1.07,44.13,1.044,18.4,6.3,13.7,23.79,21.71,20.0,24.4,1.22,94.0,0.94,CCO,25.0,CF,C1=CC(=C(C=C1CC(C(=O)O)OC(=O)C=CC2=CC(=C(C=C2)O)O)O)O,C1=CC(=C(C=C1CC(C(=O)O)OC(=O)C=CC2=CC(=C(C=C2)O)O)O)O.CCO
112,10.1016/j.memsci.2018.12.077,2019,Journal of Membrane Science,DM300,300,,370.0,1.0,0.002703,EtOH,46.1,0.52,1.07,44.13,1.044,18.4,6.3,13.7,23.79,21.71,20.0,14.0,0.7,94.0,0.94,CCO,25.0,CF,CC(CC(C(C)(C)C(C1=CC=CC=C1)(C)C)C2=CC=CC=C2)C3=CC=CC=C3,CC(CC(C(C)(C)C(C1=CC=CC=C1)(C)C)C2=CC=CC=C2)C3=CC=CC=C3.CCO
113,10.1016/j.memsci.2018.12.077,2019,Journal of Membrane Science,DM300,300,,600.0,1.0,0.001667,EtOH,46.1,0.52,1.07,44.13,1.044,18.4,6.3,13.7,23.79,21.71,30.0,21.1,0.7,94.1,0.94,CCO,25.0,CF,O=C(C(CC(CC(C(OC)=O)C)(C(OC)=O)C)(CC(C(OC)=O)(CC(C(OC)=O)(CC(C(OC)=O)(C)C)C)C)C)OC,O=C(C(CC(CC(C(OC)=O)C)(C(OC)=O)C)(CC(C(OC)=O)(CC(C(OC)=O)(CC(C(OC)=O)(C)C)C)C)C)OC.CCO
114,10.1016/j.memsci.2018.12.077,2019,Journal of Membrane Science,DM300,300,,474.0,1.0,0.00211,EtOH,46.1,0.52,1.07,44.13,1.044,18.4,6.3,13.7,23.79,21.71,20.0,14.0,0.7,94.4,0.94,CCO,25.0,CF,CC(C1=CC=CC=C1)CC(CC(C(C)(C)C(C2=CC=CC=C2)(C)C)C3=CC=CC=C3)C4=CC=CC=C4,CC(C1=CC=CC=C1)CC(CC(C(C)(C)C(C2=CC=CC=C2)(C)C)C3=CC=CC=C3)C4=CC=CC=C4.CCO
115,10.1016/j.memsci.2018.12.077,2019,Journal of Membrane Science,DM300,300,,578.0,1.0,0.00173,EtOH,46.1,0.52,1.07,44.13,1.044,18.4,6.3,13.7,23.79,21.71,20.0,14.0,0.7,94.4,0.94,CCO,25.0,CF,CC(C1=CC=CC=C1)CC(C2=CC=CC=C2)CC(CC(C(C)(C)C(C3=CC=CC=C3)(C)C)C4=CC=CC=C4)C5=CC=CC=C5,CC(C1=CC=CC=C1)CC(C2=CC=CC=C2)CC(CC(C(C)(C)C(C3=CC=CC=C3)(C)C)C4=CC=CC=C4)C5=CC=CC=C5.CCO
116,10.1016/j.memsci.2018.12.077,2019,Journal of Membrane Science,DM300,300,,700.0,1.0,0.001429,EtOH,46.1,0.52,1.07,44.13,1.044,18.4,6.3,13.7,23.79,21.71,40.0,28.1,0.7,94.4,0.94,CCO,25.0,CF,O=C(C(CC(CC(C(OC)=O)C)(C(OC)=O)C)(CC(C(OC)=O)(CC(C(OC)=O)(CC(C(OC)=O)(CC(C(OC)=O)(C)C)C)C)C)C)OC,O=C(C(CC(CC(C(OC)=O)C)(C(OC)=O)C)(CC(C(OC)=O)(CC(C(OC)=O)(CC(C(OC)=O)(CC(C(OC)=O)(C)C)C)C)C)C)OC.CCO
117,10.1016/j.cherd.2010.07.002,2011,chemical engineering research and design,DM300,300,,360.3,0.5,0.001388,EtOH,46.1,0.52,1.07,44.13,1.044,18.4,6.3,13.7,23.79,21.71,40.0,41.1,1.03,94.7,0.95,CCO,25.0,CF,C1=CC(=C(C=C1CC(C(=O)O)OC(=O)C=CC2=CC(=C(C=C2)O)O)O)O,C1=CC(=C(C=C1CC(C(=O)O)OC(=O)C=CC2=CC(=C(C=C2)O)O)O)O.CCO
118,10.1016/j.memsci.2018.12.077,2019,Journal of Membrane Science,DM300,300,,900.0,1.0,0.001111,EtOH,46.1,0.52,1.07,44.13,1.044,18.4,6.3,13.7,23.79,21.71,30.0,21.1,0.7,94.8,0.95,CCO,25.0,CF,O=C(C(CC(CC(C(OC)=O)C)(C(OC)=O)C)(CC(C(OC)=O)(CC(C(OC)=O)(CC(C(OC)=O)(CC(C(OC)=O)(CC(C(OC)=O)(CC(C(OC)=O)(C)C)C)C)C)C)C)C)OC,O=C(C(CC(CC(C(OC)=O)C)(C(OC)=O)C)(CC(C(OC)=O)(CC(C(OC)=O)(CC(C(OC)=O)(CC(C(OC)=O)(CC(C(OC)=O)(CC(C(OC)=O)(C)C)C)C)C)C)C)C)OC.CCO
119,10.1016/j.memsci.2018.12.077,2019,Journal of Membrane Science,DM300,300,,266.0,1.0,0.003759,EtOH,46.1,0.52,1.07,44.13,1.044,18.4,6.3,13.7,23.79,21.71,20.0,14.0,0.7,95.0,0.95,CCO,25.0,CF,CC(C(C)(C)C(C1=CC=CC=C1)(C)C)C2=CC=CC=C2,CC(C(C)(C)C(C1=CC=CC=C1)(C)C)C2=CC=CC=C2.CCO
120,10.1016/j.memsci.2018.12.077,2019,Journal of Membrane Science,DM300,300,,370.0,1.0,0.002703,EtOH,46.1,0.52,1.07,44.13,1.044,18.4,6.3,13.7,23.79,21.71,30.0,21.1,0.7,95.0,0.95,CCO,25.0,CF,CC(CC(C(C)(C)C(C1=CC=CC=C1)(C)C)C2=CC=CC=C2)C3=CC=CC=C3,CC(CC(C(C)(C)C(C1=CC=CC=C1)(C)C)C2=CC=CC=C2)C3=CC=CC=C3.CCO
121,10.1021/acssuschemeng.5b00734,2015,ASCECG,DM300,300,,374.0,56.1,0.15,EtOH,46.1,0.52,1.07,44.13,1.044,18.4,6.3,13.7,23.79,21.71,20.0,12.7,0.64,95.0,0.95,CCO,23.0,CF,OCC[P](CCCC)(CCCC)CCCC.[I],OCC[P](CCCC)(CCCC)CCCC.[I].CCO
122,10.1016/j.memsci.2018.12.077,2019,Journal of Membrane Science,DM300,300,,474.0,1.0,0.00211,EtOH,46.1,0.52,1.07,44.13,1.044,18.4,6.3,13.7,23.79,21.71,30.0,21.1,0.7,95.2,0.95,CCO,25.0,CF,CC(C1=CC=CC=C1)CC(CC(C(C)(C)C(C2=CC=CC=C2)(C)C)C3=CC=CC=C3)C4=CC=CC=C4,CC(C1=CC=CC=C1)CC(CC(C(C)(C)C(C2=CC=CC=C2)(C)C)C3=CC=CC=C3)C4=CC=CC=C4.CCO
123,10.1016/j.memsci.2018.12.077,2019,Journal of Membrane Science,DM300,300,,800.0,1.0,0.00125,EtOH,46.1,0.52,1.07,44.13,1.044,18.4,6.3,13.7,23.79,21.71,40.0,28.1,0.7,95.2,0.95,CCO,25.0,CF,O=C(C(CC(CC(C(OC)=O)C)(C(OC)=O)C)(CC(C(OC)=O)(CC(C(OC)=O)(CC(C(OC)=O)(CC(C(OC)=O)(CC(C(OC)=O)(C)C)C)C)C)C)C)OC,O=C(C(CC(CC(C(OC)=O)C)(C(OC)=O)C)(CC(C(OC)=O)(CC(C(OC)=O)(CC(C(OC)=O)(CC(C(OC)=O)(CC(C(OC)=O)(C)C)C)C)C)C)C)OC.CCO
124,10.1016/j.memsci.2018.12.077,2019,Journal of Membrane Science,DM300,300,,578.0,1.0,0.00173,EtOH,46.1,0.52,1.07,44.13,1.044,18.4,6.3,13.7,23.79,21.71,30.0,21.1,0.7,95.3,0.95,CCO,25.0,CF,CC(C1=CC=CC=C1)CC(C2=CC=CC=C2)CC(CC(C(C)(C)C(C3=CC=CC=C3)(C)C)C4=CC=CC=C4)C5=CC=CC=C5,CC(C1=CC=CC=C1)CC(C2=CC=CC=C2)CC(CC(C(C)(C)C(C3=CC=CC=C3)(C)C)C4=CC=CC=C4)C5=CC=CC=C5.CCO
125,10.1016/j.memsci.2018.12.077,2019,Journal of Membrane Science,DM300,300,,682.0,1.0,0.001466,EtOH,46.1,0.52,1.07,44.13,1.044,18.4,6.3,13.7,23.79,21.71,20.0,14.0,0.7,95.3,0.95,CCO,25.0,CF,CC(C1=CC=CC=C1)CC(C2=CC=CC=C2)CC(C3=CC=CC=C3)CC(CC(C(C)(C)C(C4=CC=CC=C4)(C)C)C5=CC=CC=C5)C6=CC=CC=C6,CC(C1=CC=CC=C1)CC(C2=CC=CC=C2)CC(C3=CC=CC=C3)CC(CC(C(C)(C)C(C4=CC=CC=C4)(C)C)C5=CC=CC=C5)C6=CC=CC=C6.CCO