,DOI,Year,Journal,Membrane,MWCO,Membrane type,Solute,Solute W conc,Solute M conc,Solvent,Solvent Mw,Solvent diameter,Solvent viscosity,Solvent molar volume,Density,H1,H2,H3,H4,Livingston parameter,Pressure,Flux,Permeance,measured_rejection,Unnamed: 24,solvent_smiles,Temperature,Process configuration,solute_smiles,full_smiles
174,10.1016/j.memsci.2016.10.015,2017,,DM300,300,,,220.0,,DMF,73.1,0.626,0.8,77.1,0.948,17.4,13.7,11.3,24.86,43.58,30.0,,,100.0,1.0,O=CN(C)C,,CF,CC(C1=CC=CC=C1)CC(C2=CC=CC=C2)CC(C3=CC=CC=C3)CC(C4=CC=CC=C4)CC(C5=CC=CC=C5)CC(C6=CC=CC=C6)CC(C7=CC=CC=C7)CC(C8=CC=CC=C8)CC(C9=CC=CC=C9)CC(C%10=CC=CC=C%10)CC(C%11=CC=CC=C%11)CC(C%12=CC=CC=C%12)CC(C%13=CC=CC=C%13)CC(C%14=CC=CC=C%14)CC(C%15=CC=CC=C%15)CC(C)(C)C%16=CC=CC=C%16,CC(C1=CC=CC=C1)CC(C2=CC=CC=C2)CC(C3=CC=CC=C3)CC(C4=CC=CC=C4)CC(C5=CC=CC=C5)CC(C6=CC=CC=C6)CC(C7=CC=CC=C7)CC(C8=CC=CC=C8)CC(C9=CC=CC=C9)CC(C%10=CC=CC=C%10)CC(C%11=CC=CC=C%11)CC(C%12=CC=CC=C%12)CC(C%13=CC=CC=C%13)CC(C%14=CC=CC=C%14)CC(C%15=CC=CC=C%15)CC(C)(C)C%16=CC=CC=C%16.O=CN(C)C
175,10.1016/j.memsci.2016.10.015,2017,,DM300,300,,,220.0,,DMF,73.1,0.626,0.8,77.1,0.948,17.4,13.7,11.3,24.86,43.58,30.0,,,100.0,1.0,O=CN(C)C,,CF,CC(C1=CC=CC=C1)CC(C2=CC=CC=C2)CC(C3=CC=CC=C3)CC(C4=CC=CC=C4)CC(C5=CC=CC=C5)CC(C6=CC=CC=C6)CC(C7=CC=CC=C7)CC(C8=CC=CC=C8)CC(C9=CC=CC=C9)CC(C%10=CC=CC=C%10)CC(C%11=CC=CC=C%11)CC(C%12=CC=CC=C%12)CC(C%13=CC=CC=C%13)CC(C%14=CC=CC=C%14)CC(C%15=CC=CC=C%15)CC(C%16=CC=CC=C%16)CC(C)(C)C%17=CC=CC=C%17,CC(C1=CC=CC=C1)CC(C2=CC=CC=C2)CC(C3=CC=CC=C3)CC(C4=CC=CC=C4)CC(C5=CC=CC=C5)CC(C6=CC=CC=C6)CC(C7=CC=CC=C7)CC(C8=CC=CC=C8)CC(C9=CC=CC=C9)CC(C%10=CC=CC=C%10)CC(C%11=CC=CC=C%11)CC(C%12=CC=CC=C%12)CC(C%13=CC=CC=C%13)CC(C%14=CC=CC=C%14)CC(C%15=CC=CC=C%15)CC(C%16=CC=CC=C%16)CC(C)(C)C%17=CC=CC=C%17.O=CN(C)C
176,10.1016/j.memsci.2016.10.015,2017,,DM300,300,,,220.0,,DMF,73.1,0.626,0.8,77.1,0.948,17.4,13.7,11.3,24.86,43.58,30.0,,,100.0,1.0,O=CN(C)C,,CF,CC(C1=CC=CC=C1)CC(C2=CC=CC=C2)CC(C3=CC=CC=C3)CC(C4=CC=CC=C4)CC(C5=CC=CC=C5)CC(C6=CC=CC=C6)CC(C7=CC=CC=C7)CC(C8=CC=CC=C8)CC(C9=CC=CC=C9)CC(C%10=CC=CC=C%10)CC(C%11=CC=CC=C%11)CC(C%12=CC=CC=C%12)CC(C%13=CC=CC=C%13)CC(C%14=CC=CC=C%14)CC(C%15=CC=CC=C%15)CC(C%16=CC=CC=C%16)CC(C%17=CC=CC=C%17)CC(C)(C)C%18=CC=CC=C%18,CC(C1=CC=CC=C1)CC(C2=CC=CC=C2)CC(C3=CC=CC=C3)CC(C4=CC=CC=C4)CC(C5=CC=CC=C5)CC(C6=CC=CC=C6)CC(C7=CC=CC=C7)CC(C8=CC=CC=C8)CC(C9=CC=CC=C9)CC(C%10=CC=CC=C%10)CC(C%11=CC=CC=C%11)CC(C%12=CC=CC=C%12)CC(C%13=CC=CC=C%13)CC(C%14=CC=CC=C%14)CC(C%15=CC=CC=C%15)CC(C%16=CC=CC=C%16)CC(C%17=CC=CC=C%17)CC(C)(C)C%18=CC=CC=C%18.O=CN(C)C
177,10.1016/j.memsci.2016.10.015,2017,,DM300,300,,,220.0,,DMF,73.1,0.626,0.8,77.1,0.948,17.4,13.7,11.3,24.86,43.58,30.0,,,100.0,1.0,O=CN(C)C,,CF,CC(C1=CC=CC=C1)CC(C2=CC=CC=C2)CC(C3=CC=CC=C3)CC(C4=CC=CC=C4)CC(C5=CC=CC=C5)CC(C6=CC=CC=C6)CC(C7=CC=CC=C7)CC(C8=CC=CC=C8)CC(C9=CC=CC=C9)CC(C%10=CC=CC=C%10)CC(C)(C)C%11=CC=CC=C%11,CC(C1=CC=CC=C1)CC(C2=CC=CC=C2)CC(C3=CC=CC=C3)CC(C4=CC=CC=C4)CC(C5=CC=CC=C5)CC(C6=CC=CC=C6)CC(C7=CC=CC=C7)CC(C8=CC=CC=C8)CC(C9=CC=CC=C9)CC(C%10=CC=CC=C%10)CC(C)(C)C%11=CC=CC=C%11.O=CN(C)C
178,10.1016/j.memsci.2016.10.015,2017,,DM300,300,,,220.0,,DMF,73.1,0.626,0.8,77.1,0.948,17.4,13.7,11.3,24.86,43.58,30.0,,,100.0,1.0,O=CN(C)C,,CF,CC(C1=CC=CC=C1)CC(C2=CC=CC=C2)CC(C3=CC=CC=C3)CC(C4=CC=CC=C4)CC(C5=CC=CC=C5)CC(C6=CC=CC=C6)CC(C7=CC=CC=C7)CC(C8=CC=CC=C8)CC(C9=CC=CC=C9)CC(C%10=CC=CC=C%10)CC(C%11=CC=CC=C%11)CC(C)(C)C%12=CC=CC=C%12,CC(C1=CC=CC=C1)CC(C2=CC=CC=C2)CC(C3=CC=CC=C3)CC(C4=CC=CC=C4)CC(C5=CC=CC=C5)CC(C6=CC=CC=C6)CC(C7=CC=CC=C7)CC(C8=CC=CC=C8)CC(C9=CC=CC=C9)CC(C%10=CC=CC=C%10)CC(C%11=CC=CC=C%11)CC(C)(C)C%12=CC=CC=C%12.O=CN(C)C
179,10.1016/j.memsci.2016.10.015,2017,,DM300,300,,,220.0,,DMF,73.1,0.626,0.8,77.1,0.948,17.4,13.7,11.3,24.86,43.58,30.0,,,100.0,1.0,O=CN(C)C,,CF,CC(C1=CC=CC=C1)CC(C2=CC=CC=C2)CC(C3=CC=CC=C3)CC(C4=CC=CC=C4)CC(C5=CC=CC=C5)CC(C6=CC=CC=C6)CC(C7=CC=CC=C7)CC(C8=CC=CC=C8)CC(C9=CC=CC=C9)CC(C%10=CC=CC=C%10)CC(C%11=CC=CC=C%11)CC(C%12=CC=CC=C%12)CC(C)(C)C%13=CC=CC=C%13,CC(C1=CC=CC=C1)CC(C2=CC=CC=C2)CC(C3=CC=CC=C3)CC(C4=CC=CC=C4)CC(C5=CC=CC=C5)CC(C6=CC=CC=C6)CC(C7=CC=CC=C7)CC(C8=CC=CC=C8)CC(C9=CC=CC=C9)CC(C%10=CC=CC=C%10)CC(C%11=CC=CC=C%11)CC(C%12=CC=CC=C%12)CC(C)(C)C%13=CC=CC=C%13.O=CN(C)C
180,10.1016/j.memsci.2016.10.015,2017,,DM300,300,,,220.0,,DMF,73.1,0.626,0.8,77.1,0.948,17.4,13.7,11.3,24.86,43.58,30.0,,,100.0,1.0,O=CN(C)C,,CF,CC(C1=CC=CC=C1)CC(C2=CC=CC=C2)CC(C3=CC=CC=C3)CC(C4=CC=CC=C4)CC(C5=CC=CC=C5)CC(C6=CC=CC=C6)CC(C7=CC=CC=C7)CC(C8=CC=CC=C8)CC(C9=CC=CC=C9)CC(C%10=CC=CC=C%10)CC(C%11=CC=CC=C%11)CC(C%12=CC=CC=C%12)CC(C%13=CC=CC=C%13)CC(C)(C)C%14=CC=CC=C%14,CC(C1=CC=CC=C1)CC(C2=CC=CC=C2)CC(C3=CC=CC=C3)CC(C4=CC=CC=C4)CC(C5=CC=CC=C5)CC(C6=CC=CC=C6)CC(C7=CC=CC=C7)CC(C8=CC=CC=C8)CC(C9=CC=CC=C9)CC(C%10=CC=CC=C%10)CC(C%11=CC=CC=C%11)CC(C%12=CC=CC=C%12)CC(C%13=CC=CC=C%13)CC(C)(C)C%14=CC=CC=C%14.O=CN(C)C
181,10.1016/j.memsci.2016.10.015,2017,,DM300,300,,,220.0,,DMF,73.1,0.626,0.8,77.1,0.948,17.4,13.7,11.3,24.86,43.58,30.0,,,100.0,1.0,O=CN(C)C,,CF,CC(C1=CC=CC=C1)CC(C2=CC=CC=C2)CC(C3=CC=CC=C3)CC(C4=CC=CC=C4)CC(C5=CC=CC=C5)CC(C6=CC=CC=C6)CC(C7=CC=CC=C7)CC(C8=CC=CC=C8)CC(C9=CC=CC=C9)CC(C%10=CC=CC=C%10)CC(C%11=CC=CC=C%11)CC(C%12=CC=CC=C%12)CC(C%13=CC=CC=C%13)CC(C%14=CC=CC=C%14)CC(C)(C)C%15=CC=CC=C%15,CC(C1=CC=CC=C1)CC(C2=CC=CC=C2)CC(C3=CC=CC=C3)CC(C4=CC=CC=C4)CC(C5=CC=CC=C5)CC(C6=CC=CC=C6)CC(C7=CC=CC=C7)CC(C8=CC=CC=C8)CC(C9=CC=CC=C9)CC(C%10=CC=CC=C%10)CC(C%11=CC=CC=C%11)CC(C%12=CC=CC=C%12)CC(C%13=CC=CC=C%13)CC(C%14=CC=CC=C%14)CC(C)(C)C%15=CC=CC=C%15.O=CN(C)C
182,10.1016/j.memsci.2016.10.015,2017,,DM300,300,,,220.0,,DMF,73.1,0.626,0.8,77.1,0.948,17.4,13.7,11.3,24.86,43.58,30.0,,,100.0,1.0,O=CN(C)C,,CF,CC(C1=CC=CC=C1)CC(C2=CC=CC=C2)CC(C3=CC=CC=C3)CC(C4=CC=CC=C4)CC(C5=CC=CC=C5)CC(C6=CC=CC=C6)CC(C7=CC=CC=C7)CC(C8=CC=CC=C8)CC(C9=CC=CC=C9)CC(C%10=CC=CC=C%10)CC(C%11=CC=CC=C%11)CC(C%12=CC=CC=C%12)CC(C%13=CC=CC=C%13)CC(C%14=CC=CC=C%14)CC(C%15=CC=CC=C%15)CC(C)(C)C%16=CC=CC=C%16,CC(C1=CC=CC=C1)CC(C2=CC=CC=C2)CC(C3=CC=CC=C3)CC(C4=CC=CC=C4)CC(C5=CC=CC=C5)CC(C6=CC=CC=C6)CC(C7=CC=CC=C7)CC(C8=CC=CC=C8)CC(C9=CC=CC=C9)CC(C%10=CC=CC=C%10)CC(C%11=CC=CC=C%11)CC(C%12=CC=CC=C%12)CC(C%13=CC=CC=C%13)CC(C%14=CC=CC=C%14)CC(C%15=CC=CC=C%15)CC(C)(C)C%16=CC=CC=C%16.O=CN(C)C
183,10.1016/j.memsci.2016.10.015,2017,,DM300,300,,,220.0,,DMF,73.1,0.626,0.8,77.1,0.948,17.4,13.7,11.3,24.86,43.58,30.0,,,100.0,1.0,O=CN(C)C,,CF,CC(C1=CC=CC=C1)CC(C2=CC=CC=C2)CC(C3=CC=CC=C3)CC(C4=CC=CC=C4)CC(C5=CC=CC=C5)CC(C6=CC=CC=C6)CC(C7=CC=CC=C7)CC(C8=CC=CC=C8)CC(C9=CC=CC=C9)CC(C%10=CC=CC=C%10)CC(C%11=CC=CC=C%11)CC(C%12=CC=CC=C%12)CC(C%13=CC=CC=C%13)CC(C%14=CC=CC=C%14)CC(C%15=CC=CC=C%15)CC(C%16=CC=CC=C%16)CC(C)(C)C%17=CC=CC=C%17,CC(C1=CC=CC=C1)CC(C2=CC=CC=C2)CC(C3=CC=CC=C3)CC(C4=CC=CC=C4)CC(C5=CC=CC=C5)CC(C6=CC=CC=C6)CC(C7=CC=CC=C7)CC(C8=CC=CC=C8)CC(C9=CC=CC=C9)CC(C%10=CC=CC=C%10)CC(C%11=CC=CC=C%11)CC(C%12=CC=CC=C%12)CC(C%13=CC=CC=C%13)CC(C%14=CC=CC=C%14)CC(C%15=CC=CC=C%15)CC(C%16=CC=CC=C%16)CC(C)(C)C%17=CC=CC=C%17.O=CN(C)C
184,10.1016/j.memsci.2016.10.015,2017,,DM300,300,,,220.0,,DMF,73.1,0.626,0.8,77.1,0.948,17.4,13.7,11.3,24.86,43.58,30.0,,,100.0,1.0,O=CN(C)C,,CF,CC(C1=CC=CC=C1)CC(C2=CC=CC=C2)CC(C3=CC=CC=C3)CC(C4=CC=CC=C4)CC(C5=CC=CC=C5)CC(C6=CC=CC=C6)CC(C7=CC=CC=C7)CC(C8=CC=CC=C8)CC(C9=CC=CC=C9)CC(C%10=CC=CC=C%10)CC(C%11=CC=CC=C%11)CC(C%12=CC=CC=C%12)CC(C%13=CC=CC=C%13)CC(C%14=CC=CC=C%14)CC(C%15=CC=CC=C%15)CC(C%16=CC=CC=C%16)CC(C%17=CC=CC=C%17)CC(C)(C)C%18=CC=CC=C%18,CC(C1=CC=CC=C1)CC(C2=CC=CC=C2)CC(C3=CC=CC=C3)CC(C4=CC=CC=C4)CC(C5=CC=CC=C5)CC(C6=CC=CC=C6)CC(C7=CC=CC=C7)CC(C8=CC=CC=C8)CC(C9=CC=CC=C9)CC(C%10=CC=CC=C%10)CC(C%11=CC=CC=C%11)CC(C%12=CC=CC=C%12)CC(C%13=CC=CC=C%13)CC(C%14=CC=CC=C%14)CC(C%15=CC=CC=C%15)CC(C%16=CC=CC=C%16)CC(C%17=CC=CC=C%17)CC(C)(C)C%18=CC=CC=C%18.O=CN(C)C
185,10.1016/j.memsci.2018.12.077,2019,Journal of Membrane Science,DM300,300,,1820.0,1.0,0.000549,EtOH,46.1,0.52,1.07,44.13,1.044,18.4,6.3,13.7,23.79,21.71,20.0,14.0,0.7,100.0,1.0,CCO,25.0,CF,CC(C1=CC=CC=C1)CC(C2=CC=CC=C2)CC(C3=CC=CC=C3)CC(C4=CC=CC=C4)CC(C5=CC=CC=C5)CC(C6=CC=CC=C6)CC(C7=CC=CC=C7)CC(C8=CC=CC=C8)CC(C9=CC=CC=C9)CC(C%10=CC=CC=C%10)CC(C%11=CC=CC=C%11)CC(C%12=CC=CC=C%12)CC(C%13=CC=CC=C%13)CC(C%14=CC=CC=C%14)CC(CC(C(C)(C)C(C%15=CC=CC=C%15)(C)C)C%16=CC=CC=C%16)C%17=CC=CC=C%17,CC(C1=CC=CC=C1)CC(C2=CC=CC=C2)CC(C3=CC=CC=C3)CC(C4=CC=CC=C4)CC(C5=CC=CC=C5)CC(C6=CC=CC=C6)CC(C7=CC=CC=C7)CC(C8=CC=CC=C8)CC(C9=CC=CC=C9)CC(C%10=CC=CC=C%10)CC(C%11=CC=CC=C%11)CC(C%12=CC=CC=C%12)CC(C%13=CC=CC=C%13)CC(C%14=CC=CC=C%14)CC(CC(C(C)(C)C(C%15=CC=CC=C%15)(C)C)C%16=CC=CC=C%16)C%17=CC=CC=C%17.CCO
186,10.1016/j.memsci.2019.117202,2019,Journal of Membrane Science,DM300,300,,879.4,50.0,0.056857,AcMe,58.1,0.618,0.3,74.08,0.784,15.5,10.4,7.0,19.94,92.36,26.0,2.9,0.11,100.0,1.0,CC(C)=O,25.0,DE,O=C(OCC(OC(CCCCCCCCCCCCCCCCC)=O)COC(CCCCCCCCCCCCCCCCC)=O)CCCCCCCCCCCCCCCCC,O=C(OCC(OC(CCCCCCCCCCCCCCCCC)=O)COC(CCCCCCCCCCCCCCCCC)=O)CCCCCCCCCCCCCCCCC.CC(C)=O
187,10.1016/j.memsci.2017.05.003,2017,Journal of Membrane Science,DM300,300,,586.0,20.5,0.034983,MeCN,41.1,0.55,0.37,52.23,0.786,15.3,18.0,6.1,24.4,160.91,40.0,48.2,1.2,100.0,1.0,CC#N,25.0,DE,CC1=CC(=CC(=C1N)S(=O)(=O)[O-])/C(=C\2/C=CC(=[NH2+])C(=C2)S(=O)(=O)[O-])/C3=CC(=C(C=C3)N)S(=O)(=O)[O-].[Na+].[Na+],CC1=CC(=CC(=C1N)S(=O)(=O)[O-])/C(=C\2/C=CC(=[NH2+])C(=C2)S(=O)(=O)[O-])/C3=CC(=C(C=C3)N)S(=O)(=O)[O-].[Na+].[Na+].CC#N