,DOI,Year,Journal,Membrane,MWCO,Membrane type,Solute,Solute W conc,Solute M conc,Solvent,Solvent Mw,Solvent diameter,Solvent viscosity,Solvent molar volume,Density,H1,H2,H3,H4,Livingston parameter,Pressure,Flux,Permeance,measured_rejection,Unnamed: 24,solvent_smiles,Temperature,Process configuration,solute_smiles,full_smiles
0,10.1016/j.memsci.2016.10.015,2017,,DM300,300,,,220.0,,DMF,73.1,0.626,0.8,77.1,0.948,17.4,13.7,11.3,24.86,43.58,30.0,,,27.61,0.28,O=CN(C)C,,CF,C=C(C1=CC=CC=C1)CC(C)(C)C2=CC=CC=C2,C=C(C1=CC=CC=C1)CC(C)(C)C2=CC=CC=C2.O=CN(C)C
1,10.1016/j.memsci.2018.12.077,2019,Journal of Membrane Science,DM300,300,,142.3,1.0,0.007027,IPA,60.1,0.624,1.96,76.46,0.786,15.8,6.1,16.4,23.58,7.98,20.0,,,36.3,0.36,CC(O)C,25.0,CF,CCCCCCCCCC,CCCCCCCCCC.CC(O)C
2,10.1016/j.memsci.2016.10.015,2017,,DM300,300,,,220.0,,DMF,73.1,0.626,0.8,77.1,0.948,17.4,13.7,11.3,24.86,43.58,30.0,,,38.03,0.38,O=CN(C)C,,CF,CC(C1=CC=CC=C1)CC(C2=CC=CC=C2)CC(C)(C)C3=CC=CC=C3,CC(C1=CC=CC=C1)CC(C2=CC=CC=C2)CC(C)(C)C3=CC=CC=C3.O=CN(C)C
3,10.1016/j.memsci.2018.12.077,2019,Journal of Membrane Science,DM300,300,,400.0,1.0,0.0025,EtOH,46.1,0.52,1.07,44.13,1.044,18.4,6.3,13.7,23.79,21.71,40.0,28.1,0.7,38.8,0.39,CCO,25.0,CF,O=C(OC)C(C)(CC(C)(CC(C)C(OC)=O)C(OC)=O)CC(C)(C(OC)=O)C,O=C(OC)C(C)(CC(C)(CC(C)C(OC)=O)C(OC)=O)CC(C)(C(OC)=O)C.CCO
4,10.1016/j.memsci.2018.12.077,2019,Journal of Membrane Science,DM300,300,,142.3,1.0,0.007027,IPA,60.1,0.624,1.96,76.46,0.786,15.8,6.1,16.4,23.58,7.98,30.0,,,41.6,0.42,CC(O)C,25.0,CF,CCCCCCCCCC,CCCCCCCCCC.CC(O)C
5,10.1016/j.memsci.2018.12.077,2019,Journal of Membrane Science,DM300,300,,400.0,1.0,0.0025,EtOH,46.1,0.52,1.07,44.13,1.044,18.4,6.3,13.7,23.79,21.71,20.0,14.0,0.7,44.5,0.45,CCO,25.0,CF,O=C(OC)C(C)(CC(C)(CC(C)C(OC)=O)C(OC)=O)CC(C)(C(OC)=O)C,O=C(OC)C(C)(CC(C)(CC(C)C(OC)=O)C(OC)=O)CC(C)(C(OC)=O)C.CCO
6,10.1016/j.memsci.2018.12.077,2019,Journal of Membrane Science,DM300,300,,170.3,1.0,0.005872,IPA,60.1,0.624,1.96,76.46,0.786,15.8,6.1,16.4,23.58,7.98,20.0,,,46.8,0.47,CC(O)C,25.0,CF,CCCCCCCCCCCC,CCCCCCCCCCCC.CC(O)C
7,10.1016/j.memsci.2017.05.003,2017,Journal of Membrane Science,DM300,300,,408.0,14.3,0.035049,MeCN,41.1,0.55,0.37,52.23,0.786,15.3,18.0,6.1,24.4,160.91,40.0,131.1,3.28,47.7,0.48,CC#N,25.0,DE,[Cl-].CN(C)C1=CC=C(C=C1)[C+](C1=CC=C(C=C1)N(C)C)C1=CC=C(C=C1)N(C)C,[Cl-].CN(C)C1=CC=C(C=C1)[C+](C1=CC=C(C=C1)N(C)C)C1=CC=C(C=C1)N(C)C.CC#N
8,10.1016/j.memsci.2018.12.077,2019,Journal of Membrane Science,DM300,300,,170.3,1.0,0.005872,IPA,60.1,0.624,1.96,76.46,0.786,15.8,6.1,16.4,23.58,7.98,30.0,,,48.0,0.48,CC(O)C,25.0,CF,CCCCCCCCCCCC,CCCCCCCCCCCC.CC(O)C
9,10.1016/j.memsci.2018.12.077,2019,Journal of Membrane Science,DM300,300,,198.4,1.0,0.00504,IPA,60.1,0.624,1.96,76.46,0.786,15.8,6.1,16.4,23.58,7.98,30.0,,,50.6,0.51,CC(O)C,25.0,CF,CCCCCCCCCCCCCC,CCCCCCCCCCCCCC.CC(O)C
10,10.1016/j.memsci.2018.12.077,2019,Journal of Membrane Science,DM300,300,,198.4,1.0,0.00504,IPA,60.1,0.624,1.96,76.46,0.786,15.8,6.1,16.4,23.58,7.98,20.0,,,52.5,0.53,CC(O)C,25.0,CF,CCCCCCCCCCCCCC,CCCCCCCCCCCCCC.CC(O)C
11,10.1021/acssuschemeng.5b00734,2015,ASCECG,DM300,300,,116.0,17.4,0.15,EtOH,46.1,0.52,1.07,44.13,1.044,18.4,6.3,13.7,23.79,21.71,30.0,8.2,0.27,56.0,0.56,CCO,23.0,CF,CCC(CO1)OC1=O,CCC(CO1)OC1=O.CCO
12,10.1021/acssuschemeng.5b00734,2015,ASCECG,DM300,300,,116.0,17.4,0.15,EtOH,46.1,0.52,1.07,44.13,1.044,18.4,6.3,13.7,23.79,21.71,30.0,8.6,0.29,56.0,0.56,CCO,23.0,CF,CCC(CO1)OC1=O,CCC(CO1)OC1=O.CCO
13,10.1016/j.memsci.2018.12.077,2019,Journal of Membrane Science,DM300,300,,226.4,1.0,0.004417,IPA,60.1,0.624,1.96,76.46,0.786,15.8,6.1,16.4,23.58,7.98,20.0,,,56.4,0.56,CC(O)C,25.0,CF,CCCCCCCCCCCCCCCC,CCCCCCCCCCCCCCCC.CC(O)C
14,10.1016/j.memsci.2018.12.077,2019,Journal of Membrane Science,DM300,300,,254.5,1.0,0.003929,IPA,60.1,0.624,1.96,76.46,0.786,15.8,6.1,16.4,23.58,7.98,30.0,,,56.7,0.57,CC(O)C,25.0,CF,CCCCCCCCCCCCCCCCCC,CCCCCCCCCCCCCCCCCC.CC(O)C
15,10.1002/cctc.201500902,2016,ChemCatChem,DM300,300,,408.6,4.1,0.010034,EtOH,46.1,0.52,1.07,44.13,1.044,18.4,6.3,13.7,23.79,21.71,30.0,30.6,1.02,57.0,0.57,CCO,23.0,CF,O=C(C12CC3CC(C2)CC(C3)C1)O,O=C(C12CC3CC(C2)CC(C3)C1)O.CCO
16,10.1016/j.memsci.2018.12.077,2019,Journal of Membrane Science,DM300,300,,226.4,1.0,0.004417,IPA,60.1,0.624,1.96,76.46,0.786,15.8,6.1,16.4,23.58,7.98,30.0,,,57.6,0.58,CC(O)C,25.0,CF,CCCCCCCCCCCCCCCC,CCCCCCCCCCCCCCCC.CC(O)C
17,10.1016/j.memsci.2018.12.077,2019,Journal of Membrane Science,DM300,300,,142.3,1.0,0.007027,IPA,60.1,0.624,1.96,76.46,0.786,15.8,6.1,16.4,23.58,7.98,40.0,,,57.9,0.58,CC(O)C,25.0,CF,CCCCCCCCCC,CCCCCCCCCC.CC(O)C
18,10.1016/j.memsci.2018.12.077,2019,Journal of Membrane Science,DM300,300,,254.5,1.0,0.003929,IPA,60.1,0.624,1.96,76.46,0.786,15.8,6.1,16.4,23.58,7.98,20.0,,,58.0,0.58,CC(O)C,25.0,CF,CCCCCCCCCCCCCCCCCC,CCCCCCCCCCCCCCCCCC.CC(O)C
19,10.1039/c7ra11827a,2017,RSC Adv,DM300,300,,174.1,0.5,0.002872,MeTHF,86.1,0.685,0.55,100.85,0.854,16.9,5.0,4.3,18.14,19.46,10.0,2.5,0.25,58.6,0.59,CC1CCCO1,25.0,CF,O=CC1=CC=C(C(F)(F)F)C=C1,O=CC1=CC=C(C(F)(F)F)C=C1.CC1CCCO1
20,10.1016/j.memsci.2018.12.077,2019,Journal of Membrane Science,DM300,300,,338.7,1.0,0.002952,IPA,60.1,0.624,1.96,76.46,0.786,15.8,6.1,16.4,23.58,7.98,30.0,,,63.3,0.63,CC(O)C,25.0,CF,CCCCCCCCCCCCCCCCCCCCCCCC,CCCCCCCCCCCCCCCCCCCCCCCC.CC(O)C
21,10.1016/j.memsci.2018.12.077,2019,Journal of Membrane Science,DM300,300,,170.3,1.0,0.005872,IPA,60.1,0.624,1.96,76.46,0.786,15.8,6.1,16.4,23.58,7.98,40.0,,,64.3,0.64,CC(O)C,25.0,CF,CCCCCCCCCCCC,CCCCCCCCCCCC.CC(O)C
22,10.1016/j.memsci.2018.12.077,2019,Journal of Membrane Science,DM300,300,,142.3,1.0,0.007027,EtOH,46.1,0.52,1.07,44.13,1.044,18.4,6.3,13.7,23.79,21.71,20.0,14.0,0.7,64.5,0.65,CCO,25.0,CF,CCCCCCCCCC,CCCCCCCCCC.CCO
23,10.1016/j.memsci.2018.12.077,2019,Journal of Membrane Science,DM300,300,,338.7,1.0,0.002952,IPA,60.1,0.624,1.96,76.46,0.786,15.8,6.1,16.4,23.58,7.98,20.0,,,65.2,0.65,CC(O)C,25.0,CF,CCCCCCCCCCCCCCCCCCCCCCCC,CCCCCCCCCCCCCCCCCCCCCCCC.CC(O)C
24,10.1016/j.memsci.2016.10.015,2017,,DM300,300,,,220.0,,DMF,73.1,0.626,0.8,77.1,0.948,17.4,13.7,11.3,24.86,43.58,30.0,,,65.49,0.65,O=CN(C)C,,CF,CC(C1=CC=CC=C1)CC(C2=CC=CC=C2)CC(C3=CC=CC=C3)CC(C)(C)C4=CC=CC=C4,CC(C1=CC=CC=C1)CC(C2=CC=CC=C2)CC(C3=CC=CC=C3)CC(C)(C)C4=CC=CC=C4.O=CN(C)C
25,10.1039/c7ra11827a,2017,RSC Adv,DM300,300,,174.1,0.5,0.002872,MeTHF,86.1,0.685,0.55,100.85,0.854,16.9,5.0,4.3,18.14,19.46,20.0,5.5,0.28,68.4,0.68,CC1CCCO1,25.0,CF,O=CC1=CC=C(C(F)(F)F)C=C1,O=CC1=CC=C(C(F)(F)F)C=C1.CC1CCCO1
26,10.1016/j.memsci.2018.12.077,2019,Journal of Membrane Science,DM300,300,,170.3,1.0,0.005872,EtOH,46.1,0.52,1.07,44.13,1.044,18.4,6.3,13.7,23.79,21.71,20.0,14.0,0.7,69.8,0.7,CCO,25.0,CF,CCCCCCCCCCCC,CCCCCCCCCCCC.CCO
27,10.1016/j.memsci.2018.12.077,2019,Journal of Membrane Science,DM300,300,,198.4,1.0,0.00504,IPA,60.1,0.624,1.96,76.46,0.786,15.8,6.1,16.4,23.58,7.98,40.0,,,69.9,0.7,CC(O)C,25.0,CF,CCCCCCCCCCCCCC,CCCCCCCCCCCCCC.CC(O)C
28,10.1016/j.memsci.2018.12.077,2019,Journal of Membrane Science,DM300,300,,678.6,1.0,0.001474,IPA,60.1,0.624,1.96,76.46,0.786,15.8,6.1,16.4,23.58,7.98,20.0,,,70.1,0.7,CC(O)C,25.0,CF,CC(=O)OCC1C(C(C(C(O1)OC2(C(C(C(O2)COC(=O)C)OC(=O)C)OC(=O)C)COC(=O)C)OC(=O)C)OC(=O)C)OC(=O)C,CC(=O)OCC1C(C(C(C(O1)OC2(C(C(C(O2)COC(=O)C)OC(=O)C)OC(=O)C)COC(=O)C)OC(=O)C)OC(=O)C)OC(=O)C.CC(O)C
29,10.1016/j.memsci.2018.12.077,2019,Journal of Membrane Science,DM300,300,,678.6,1.0,0.001474,IPA,60.1,0.624,1.96,76.46,0.786,15.8,6.1,16.4,23.58,7.98,30.0,,,70.3,0.7,CC(O)C,25.0,CF,CC(=O)OCC1C(C(C(C(O1)OC2(C(C(C(O2)COC(=O)C)OC(=O)C)OC(=O)C)COC(=O)C)OC(=O)C)OC(=O)C)OC(=O)C,CC(=O)OCC1C(C(C(C(O1)OC2(C(C(C(O2)COC(=O)C)OC(=O)C)OC(=O)C)COC(=O)C)OC(=O)C)OC(=O)C)OC(=O)C.CC(O)C
30,10.1016/j.jfoodeng.2010.07.020,2011,Journal of Food Engineering,DM300,300,,280.0,1.1,0.003929,EtOAc,88.1,0.677,0.46,97.68,0.902,15.8,5.3,7.2,18.15,25.1,30.0,3.0,0.1,70.4,0.7,CC(OCC)=O,30.0,CF,OC(CCCCCCC/C=C/CCCCCCCC)=O,OC(CCCCCCC/C=C/CCCCCCCC)=O.CC(OCC)=O
31,10.1016/j.memsci.2018.12.077,2019,Journal of Membrane Science,DM300,300,,254.5,1.0,0.003929,IPA,60.1,0.624,1.96,76.46,0.786,15.8,6.1,16.4,23.58,7.98,40.0,,,72.8,0.73,CC(O)C,25.0,CF,CCCCCCCCCCCCCCCCCC,CCCCCCCCCCCCCCCCCC.CC(O)C
32,10.1016/j.memsci.2018.12.077,2019,Journal of Membrane Science,DM300,300,,142.3,1.0,0.007027,EtOH,46.1,0.52,1.07,44.13,1.044,18.4,6.3,13.7,23.79,21.71,30.0,21.1,0.7,73.1,0.73,CCO,25.0,CF,CCCCCCCCCC,CCCCCCCCCC.CCO
33,10.1016/j.memsci.2018.12.077,2019,Journal of Membrane Science,DM300,300,,198.4,1.0,0.00504,EtOH,46.1,0.52,1.07,44.13,1.044,18.4,6.3,13.7,23.79,21.71,20.0,14.0,0.7,73.6,0.74,CCO,25.0,CF,CCCCCCCCCCCCCC,CCCCCCCCCCCCCC.CCO
34,10.1039/c7ra11827a,2017,RSC Adv,DM300,300,,174.1,0.5,0.002872,MeTHF,86.1,0.685,0.55,100.85,0.854,16.9,5.0,4.3,18.14,19.46,30.0,7.8,0.26,73.8,0.74,CC1CCCO1,25.0,CF,O=CC1=CC=C(C(F)(F)F)C=C1,O=CC1=CC=C(C(F)(F)F)C=C1.CC1CCCO1
35,10.1016/j.memsci.2018.12.077,2019,Journal of Membrane Science,DM300,300,,226.4,1.0,0.004417,IPA,60.1,0.624,1.96,76.46,0.786,15.8,6.1,16.4,23.58,7.98,40.0,,,74.3,0.74,CC(O)C,25.0,CF,CCCCCCCCCCCCCCCC,CCCCCCCCCCCCCCCC.CC(O)C
36,10.1016/j.memsci.2018.12.077,2019,Journal of Membrane Science,DM300,300,,226.4,1.0,0.004417,EtOH,46.1,0.52,1.07,44.13,1.044,18.4,6.3,13.7,23.79,21.71,20.0,14.0,0.7,76.5,0.77,CCO,25.0,CF,CCCCCCCCCCCCCCCC,CCCCCCCCCCCCCCCC.CCO
37,10.1039/c7ra11827a,2017,RSC Adv,DM300,300,,174.1,0.5,0.002872,MeTHF,86.1,0.685,0.55,100.85,0.854,16.9,5.0,4.3,18.14,19.46,40.0,8.4,0.21,76.5,0.77,CC1CCCO1,25.0,CF,O=CC1=CC=C(C(F)(F)F)C=C1,O=CC1=CC=C(C(F)(F)F)C=C1.CC1CCCO1
38,10.1016/j.memsci.2018.12.077,2019,Journal of Membrane Science,DM300,300,,142.3,1.0,0.007027,EtOH,46.1,0.52,1.07,44.13,1.044,18.4,6.3,13.7,23.79,21.71,40.0,28.1,0.7,77.5,0.78,CCO,25.0,CF,CCCCCCCCCC,CCCCCCCCCC.CCO
39,10.1016/j.memsci.2018.12.077,2019,Journal of Membrane Science,DM300,300,,1000.0,1.0,0.001,EtOH,46.1,0.52,1.07,44.13,1.044,18.4,6.3,13.7,23.79,21.71,20.0,14.0,0.7,78.4,0.78,CCO,25.0,CF,O=C(C(CC(CC(C(OC)=O)C)(C(OC)=O)C)(CC(C(OC)=O)(CC(C(OC)=O)(CC(C(OC)=O)(CC(C(OC)=O)(CC(C(OC)=O)(CC(C(OC)=O)(CC(C(OC)=O)(C)C)C)C)C)C)C)C)C)OC,O=C(C(CC(CC(C(OC)=O)C)(C(OC)=O)C)(CC(C(OC)=O)(CC(C(OC)=O)(CC(C(OC)=O)(CC(C(OC)=O)(CC(C(OC)=O)(CC(C(OC)=O)(CC(C(OC)=O)(C)C)C)C)C)C)C)C)C)OC.CCO
40,10.1016/j.memsci.2016.10.015,2017,,DM300,300,,,220.0,,DMF,73.1,0.626,0.8,77.1,0.948,17.4,13.7,11.3,24.86,43.58,30.0,,,78.56,0.79,O=CN(C)C,,CF,CC(C1=CC=CC=C1)CC(C2=CC=CC=C2)CC(C3=CC=CC=C3)CC(C4=CC=CC=C4)CC(C)(C)C5=CC=CC=C5,CC(C1=CC=CC=C1)CC(C2=CC=CC=C2)CC(C3=CC=CC=C3)CC(C4=CC=CC=C4)CC(C)(C)C5=CC=CC=C5.O=CN(C)C
41,10.1016/j.memsci.2018.12.077,2019,Journal of Membrane Science,DM300,300,,254.5,1.0,0.003929,EtOH,46.1,0.52,1.07,44.13,1.044,18.4,6.3,13.7,23.79,21.71,20.0,14.0,0.7,78.9,0.79,CCO,25.0,CF,CCCCCCCCCCCCCCCCCC,CCCCCCCCCCCCCCCCCC.CCO
42,10.1016/j.memsci.2018.12.077,2019,Journal of Membrane Science,DM300,300,,338.7,1.0,0.002952,IPA,60.1,0.624,1.96,76.46,0.786,15.8,6.1,16.4,23.58,7.98,40.0,,,79.0,0.79,CC(O)C,25.0,CF,CCCCCCCCCCCCCCCCCCCCCCCC,CCCCCCCCCCCCCCCCCCCCCCCC.CC(O)C
43,10.1016/j.memsci.2018.12.077,2019,Journal of Membrane Science,DM300,300,,170.3,1.0,0.005872,EtOH,46.1,0.52,1.07,44.13,1.044,18.4,6.3,13.7,23.79,21.71,30.0,21.1,0.7,79.1,0.79,CCO,25.0,CF,CCCCCCCCCCCC,CCCCCCCCCCCC.CCO
44,10.1016/j.memsci.2017.05.003,2017,Journal of Membrane Science,DM300,300,,351.0,12.3,0.035043,MeCN,41.1,0.55,0.37,52.23,0.786,15.3,18.0,6.1,24.4,160.91,40.0,121.4,3.04,79.8,0.8,CC#N,25.0,DE,[Cl-].n1c4c([n+](c2c1cc(c(N)c2)C)c3ccccc3)cc(c(c4)C)N,[Cl-].n1c4c([n+](c2c1cc(c(N)c2)C)c3ccccc3)cc(c(c4)C)N.CC#N
45,10.1016/j.memsci.2018.12.077,2019,Journal of Membrane Science,DM300,300,,198.4,1.0,0.00504,EtOH,46.1,0.52,1.07,44.13,1.044,18.4,6.3,13.7,23.79,21.71,30.0,21.1,0.7,80.3,0.8,CCO,25.0,CF,CCCCCCCCCCCCCC,CCCCCCCCCCCCCC.CCO
46,10.1016/j.memsci.2016.10.015,2017,,DM300,300,,,220.0,,DMF,73.1,0.626,0.8,77.1,0.948,17.4,13.7,11.3,24.86,43.58,30.0,,,80.32,0.8,O=CN(C)C,,CF,C=C(C1=CC=CC=C1)CC(C)(C)C2=CC=CC=C2,C=C(C1=CC=CC=C1)CC(C)(C)C2=CC=CC=C2.O=CN(C)C
47,10.1016/j.memsci.2018.12.077,2019,Journal of Membrane Science,DM300,300,,170.3,1.0,0.005872,EtOH,46.1,0.52,1.07,44.13,1.044,18.4,6.3,13.7,23.79,21.71,40.0,28.1,0.7,80.9,0.81,CCO,25.0,CF,CCCCCCCCCCCC,CCCCCCCCCCCC.CCO
48,10.1016/j.memsci.2018.12.077,2019,Journal of Membrane Science,DM300,300,,900.0,1.0,0.001111,IPA,60.1,0.624,1.96,76.46,0.786,15.8,6.1,16.4,23.58,7.98,20.0,,,81.3,0.81,CC(O)C,25.0,CF,O=C(C(CC(CC(C(OC)=O)C)(C(OC)=O)C)(CC(C(OC)=O)(CC(C(OC)=O)(CC(C(OC)=O)(CC(C(OC)=O)(CC(C(OC)=O)(CC(C(OC)=O)(C)C)C)C)C)C)C)C)OC,O=C(C(CC(CC(C(OC)=O)C)(C(OC)=O)C)(CC(C(OC)=O)(CC(C(OC)=O)(CC(C(OC)=O)(CC(C(OC)=O)(CC(C(OC)=O)(CC(C(OC)=O)(C)C)C)C)C)C)C)C)OC.CC(O)C
49,10.1016/j.memsci.2018.12.077,2019,Journal of Membrane Science,DM300,300,,1100.0,1.0,0.000909,IPA,60.1,0.624,1.96,76.46,0.786,15.8,6.1,16.4,23.58,7.98,20.0,,,81.6,0.82,CC(O)C,25.0,CF,O=C(C(CC(CC(C(OC)=O)C)(C(OC)=O)C)(CC(C(OC)=O)(CC(C(OC)=O)(CC(C(OC)=O)(CC(C(OC)=O)(CC(C(OC)=O)(CC(C(OC)=O)(CC(C(OC)=O)(C)C)C)C)C)C)C)C)C)OC,O=C(C(CC(CC(C(OC)=O)C)(C(OC)=O)C)(CC(C(OC)=O)(CC(C(OC)=O)(CC(C(OC)=O)(CC(C(OC)=O)(CC(C(OC)=O)(CC(C(OC)=O)(CC(C(OC)=O)(C)C)C)C)C)C)C)C)C)OC.CC(O)C
50,10.1016/j.memsci.2018.12.077,2019,Journal of Membrane Science,DM300,300,,1200.0,1.0,0.000833,IPA,60.1,0.624,1.96,76.46,0.786,15.8,6.1,16.4,23.58,7.98,20.0,,,81.7,0.82,CC(O)C,25.0,CF,O=C(C(CC(CC(C(OC)=O)C)(C(OC)=O)C)(CC(C(OC)=O)(CC(C(OC)=O)(CC(C(OC)=O)(CC(C(OC)=O)(CC(C(OC)=O)(CC(C(OC)=O)(CC(C(OC)=O)(CC(C(OC)=O)(CC(C(OC)=O)(C)C)C)C)C)C)C)C)C)C)C)OC,O=C(C(CC(CC(C(OC)=O)C)(C(OC)=O)C)(CC(C(OC)=O)(CC(C(OC)=O)(CC(C(OC)=O)(CC(C(OC)=O)(CC(C(OC)=O)(CC(C(OC)=O)(CC(C(OC)=O)(CC(C(OC)=O)(CC(C(OC)=O)(C)C)C)C)C)C)C)C)C)C)C)OC.CC(O)C
51,10.1016/j.memsci.2018.12.077,2019,Journal of Membrane Science,DM300,300,,1000.0,1.0,0.001,IPA,60.1,0.624,1.96,76.46,0.786,15.8,6.1,16.4,23.58,7.98,20.0,,,81.9,0.82,CC(O)C,25.0,CF,O=C(C(CC(CC(C(OC)=O)C)(C(OC)=O)C)(CC(C(OC)=O)(CC(C(OC)=O)(CC(C(OC)=O)(CC(C(OC)=O)(CC(C(OC)=O)(CC(C(OC)=O)(CC(C(OC)=O)(C)C)C)C)C)C)C)C)C)OC,O=C(C(CC(CC(C(OC)=O)C)(C(OC)=O)C)(CC(C(OC)=O)(CC(C(OC)=O)(CC(C(OC)=O)(CC(C(OC)=O)(CC(C(OC)=O)(CC(C(OC)=O)(CC(C(OC)=O)(C)C)C)C)C)C)C)C)C)OC.CC(O)C
52,10.1016/j.memsci.2018.12.077,2019,Journal of Membrane Science,DM300,300,,226.4,1.0,0.004417,EtOH,46.1,0.52,1.07,44.13,1.044,18.4,6.3,13.7,23.79,21.71,30.0,21.1,0.7,82.9,0.83,CCO,25.0,CF,CCCCCCCCCCCCCCCC,CCCCCCCCCCCCCCCC.CCO
53,10.1016/j.memsci.2018.12.077,2019,Journal of Membrane Science,DM300,300,,198.4,1.0,0.00504,EtOH,46.1,0.52,1.07,44.13,1.044,18.4,6.3,13.7,23.79,21.71,40.0,28.1,0.7,83.0,0.83,CCO,25.0,CF,CCCCCCCCCCCCCC,CCCCCCCCCCCCCC.CCO
54,10.1016/j.memsci.2018.12.077,2019,Journal of Membrane Science,DM300,300,,300.0,1.0,0.003333,IPA,60.1,0.624,1.96,76.46,0.786,15.8,6.1,16.4,23.58,7.98,20.0,,,83.3,0.83,CC(O)C,25.0,CF,O=C(OC)C(C)(CC(C)(CC(C)C(OC)=O)C(OC)=O)C,O=C(OC)C(C)(CC(C)(CC(C)C(OC)=O)C(OC)=O)C.CC(O)C
55,10.1016/j.memsci.2018.12.077,2019,Journal of Membrane Science,DM300,300,,678.6,1.0,0.001474,IPA,60.1,0.624,1.96,76.46,0.786,15.8,6.1,16.4,23.58,7.98,40.0,,,83.4,0.83,CC(O)C,25.0,CF,CC(=O)OCC1C(C(C(C(O1)OC2(C(C(C(O2)COC(=O)C)OC(=O)C)OC(=O)C)COC(=O)C)OC(=O)C)OC(=O)C)OC(=O)C,CC(=O)OCC1C(C(C(C(O1)OC2(C(C(C(O2)COC(=O)C)OC(=O)C)OC(=O)C)COC(=O)C)OC(=O)C)OC(=O)C)OC(=O)C.CC(O)C
56,10.1016/j.memsci.2018.12.077,2019,Journal of Membrane Science,DM300,300,,400.0,1.0,0.0025,IPA,60.1,0.624,1.96,76.46,0.786,15.8,6.1,16.4,23.58,7.98,20.0,,,83.6,0.84,CC(O)C,25.0,CF,O=C(OC)C(C)(CC(C)(CC(C)C(OC)=O)C(OC)=O)CC(C)(C(OC)=O)C,O=C(OC)C(C)(CC(C)(CC(C)C(OC)=O)C(OC)=O)CC(C)(C(OC)=O)C.CC(O)C
57,10.1016/j.memsci.2019.117202,2019,Journal of Membrane Science,DM300,300,,280.4,50.0,0.178317,AcMe,58.1,0.618,0.3,74.08,0.784,15.5,10.4,7.0,19.94,92.36,26.0,2.9,0.11,83.7,0.84,CC(C)=O,25.0,DE,O=C(O)CCCCCCCCCCCCCCCCC,O=C(O)CCCCCCCCCCCCCCCCC.CC(C)=O
58,10.1016/j.memsci.2018.12.077,2019,Journal of Membrane Science,DM300,300,,200.0,1.0,0.005,EtOH,46.1,0.52,1.07,44.13,1.044,18.4,6.3,13.7,23.79,21.71,20.0,14.0,0.7,84.0,0.84,CCO,25.0,CF,CC1(C(OC)=O)CCC1(C(OC)=O)C,CC1(C(OC)=O)CCC1(C(OC)=O)C.CCO
59,10.1016/j.memsci.2018.12.077,2019,Journal of Membrane Science,DM300,300,,900.0,1.0,0.001111,IPA,60.1,0.624,1.96,76.46,0.786,15.8,6.1,16.4,23.58,7.98,30.0,,,84.3,0.84,CC(O)C,25.0,CF,O=C(C(CC(CC(C(OC)=O)C)(C(OC)=O)C)(CC(C(OC)=O)(CC(C(OC)=O)(CC(C(OC)=O)(CC(C(OC)=O)(CC(C(OC)=O)(CC(C(OC)=O)(C)C)C)C)C)C)C)C)OC,O=C(C(CC(CC(C(OC)=O)C)(C(OC)=O)C)(CC(C(OC)=O)(CC(C(OC)=O)(CC(C(OC)=O)(CC(C(OC)=O)(CC(C(OC)=O)(CC(C(OC)=O)(C)C)C)C)C)C)C)C)OC.CC(O)C
60,10.1016/j.memsci.2018.12.077,2019,Journal of Membrane Science,DM300,300,,1100.0,1.0,0.000909,IPA,60.1,0.624,1.96,76.46,0.786,15.8,6.1,16.4,23.58,7.98,30.0,,,84.5,0.85,CC(O)C,25.0,CF,O=C(C(CC(CC(C(OC)=O)C)(C(OC)=O)C)(CC(C(OC)=O)(CC(C(OC)=O)(CC(C(OC)=O)(CC(C(OC)=O)(CC(C(OC)=O)(CC(C(OC)=O)(CC(C(OC)=O)(C)C)C)C)C)C)C)C)C)OC,O=C(C(CC(CC(C(OC)=O)C)(C(OC)=O)C)(CC(C(OC)=O)(CC(C(OC)=O)(CC(C(OC)=O)(CC(C(OC)=O)(CC(C(OC)=O)(CC(C(OC)=O)(CC(C(OC)=O)(C)C)C)C)C)C)C)C)C)OC.CC(O)C
61,10.1016/j.memsci.2018.12.077,2019,Journal of Membrane Science,DM300,300,,1200.0,1.0,0.000833,IPA,60.1,0.624,1.96,76.46,0.786,15.8,6.1,16.4,23.58,7.98,30.0,,,84.5,0.85,CC(O)C,25.0,CF,O=C(C(CC(CC(C(OC)=O)C)(C(OC)=O)C)(CC(C(OC)=O)(CC(C(OC)=O)(CC(C(OC)=O)(CC(C(OC)=O)(CC(C(OC)=O)(CC(C(OC)=O)(CC(C(OC)=O)(CC(C(OC)=O)(CC(C(OC)=O)(C)C)C)C)C)C)C)C)C)C)C)OC,O=C(C(CC(CC(C(OC)=O)C)(C(OC)=O)C)(CC(C(OC)=O)(CC(C(OC)=O)(CC(C(OC)=O)(CC(C(OC)=O)(CC(C(OC)=O)(CC(C(OC)=O)(CC(C(OC)=O)(CC(C(OC)=O)(CC(C(OC)=O)(C)C)C)C)C)C)C)C)C)C)C)OC.CC(O)C
62,10.1016/j.memsci.2018.12.077,2019,Journal of Membrane Science,DM300,300,,226.4,1.0,0.004417,EtOH,46.1,0.52,1.07,44.13,1.044,18.4,6.3,13.7,23.79,21.71,40.0,28.1,0.7,84.8,0.85,CCO,25.0,CF,CCCCCCCCCCCCCCCC,CCCCCCCCCCCCCCCC.CCO
63,10.1016/j.memsci.2018.12.077,2019,Journal of Membrane Science,DM300,300,,500.0,1.0,0.002,IPA,60.1,0.624,1.96,76.46,0.786,15.8,6.1,16.4,23.58,7.98,20.0,,,84.8,0.85,CC(O)C,25.0,CF,O=C(C(CC(CC(C(OC)=O)C)(C(OC)=O)C)(CC(C(OC)=O)(CC(C(OC)=O)(C)C)C)C)OC,O=C(C(CC(CC(C(OC)=O)C)(C(OC)=O)C)(CC(C(OC)=O)(CC(C(OC)=O)(C)C)C)C)OC.CC(O)C
64,10.1016/j.memsci.2018.12.077,2019,Journal of Membrane Science,DM300,300,,600.0,1.0,0.001667,IPA,60.1,0.624,1.96,76.46,0.786,15.8,6.1,16.4,23.58,7.98,20.0,,,84.8,0.85,CC(O)C,25.0,CF,O=C(C(CC(CC(C(OC)=O)C)(C(OC)=O)C)(CC(C(OC)=O)(CC(C(OC)=O)(CC(C(OC)=O)(C)C)C)C)C)OC,O=C(C(CC(CC(C(OC)=O)C)(C(OC)=O)C)(CC(C(OC)=O)(CC(C(OC)=O)(CC(C(OC)=O)(C)C)C)C)C)OC.CC(O)C
65,10.1016/j.memsci.2018.12.077,2019,Journal of Membrane Science,DM300,300,,1000.0,1.0,0.001,IPA,60.1,0.624,1.96,76.46,0.786,15.8,6.1,16.4,23.58,7.98,30.0,,,84.8,0.85,CC(O)C,25.0,CF,O=C(C(CC(CC(C(OC)=O)C)(C(OC)=O)C)(CC(C(OC)=O)(CC(C(OC)=O)(CC(C(OC)=O)(CC(C(OC)=O)(CC(C(OC)=O)(CC(C(OC)=O)(CC(C(OC)=O)(C)C)C)C)C)C)C)C)C)OC,O=C(C(CC(CC(C(OC)=O)C)(C(OC)=O)C)(CC(C(OC)=O)(CC(C(OC)=O)(CC(C(OC)=O)(CC(C(OC)=O)(CC(C(OC)=O)(CC(C(OC)=O)(CC(C(OC)=O)(C)C)C)C)C)C)C)C)C)OC.CC(O)C
66,10.1016/j.memsci.2018.12.077,2019,Journal of Membrane Science,DM300,300,,1100.0,1.0,0.000909,IPA,60.1,0.624,1.96,76.46,0.786,15.8,6.1,16.4,23.58,7.98,40.0,,,85.4,0.85,CC(O)C,25.0,CF,O=C(C(CC(CC(C(OC)=O)C)(C(OC)=O)C)(CC(C(OC)=O)(CC(C(OC)=O)(CC(C(OC)=O)(CC(C(OC)=O)(CC(C(OC)=O)(CC(C(OC)=O)(CC(C(OC)=O)(C)C)C)C)C)C)C)C)C)OC,O=C(C(CC(CC(C(OC)=O)C)(C(OC)=O)C)(CC(C(OC)=O)(CC(C(OC)=O)(CC(C(OC)=O)(CC(C(OC)=O)(CC(C(OC)=O)(CC(C(OC)=O)(CC(C(OC)=O)(C)C)C)C)C)C)C)C)C)OC.CC(O)C
67,10.1016/j.memsci.2018.12.077,2019,Journal of Membrane Science,DM300,300,,254.5,1.0,0.003929,EtOH,46.1,0.52,1.07,44.13,1.044,18.4,6.3,13.7,23.79,21.71,30.0,21.1,0.7,85.7,0.86,CCO,25.0,CF,CCCCCCCCCCCCCCCCCC,CCCCCCCCCCCCCCCCCC.CCO
68,10.1016/j.memsci.2018.12.077,2019,Journal of Membrane Science,DM300,300,,300.0,1.0,0.003333,IPA,60.1,0.624,1.96,76.46,0.786,15.8,6.1,16.4,23.58,7.98,30.0,,,86.1,0.86,CC(O)C,25.0,CF,O=C(OC)C(C)(CC(C)(CC(C)C(OC)=O)C(OC)=O)C,O=C(OC)C(C)(CC(C)(CC(C)C(OC)=O)C(OC)=O)C.CC(O)C
69,10.1016/j.memsci.2018.12.077,2019,Journal of Membrane Science,DM300,300,,400.0,1.0,0.0025,IPA,60.1,0.624,1.96,76.46,0.786,15.8,6.1,16.4,23.58,7.98,30.0,,,86.4,0.86,CC(O)C,25.0,CF,O=C(OC)C(C)(CC(C)(CC(C)C(OC)=O)C(OC)=O)CC(C)(C(OC)=O)C,O=C(OC)C(C)(CC(C)(CC(C)C(OC)=O)C(OC)=O)CC(C)(C(OC)=O)C.CC(O)C