DOI,Year,Journal,Membrane,MWCO,Membrane type,Solute,Solute W conc,Solute M conc,Solvent,Solvent Mw,Solvent diameter,Solvent viscosity,Solvent molar volume,Density,H1,H2,H3,H4,Livingston parameter,Pressure,Flux,Permeance,dm300,solvent_smiles,Temperature,Process configuration,solute_smiles
10.1016/j.memsci.2018.12.077,2019,Journal of Membrane Science,DM300,300,,142.3,1,0.007027,IPA,60.1,0.624,1.96,76.46,0.786,15.8,6.1,16.4,23.58,7.98,20.0,,,36.30,CC(O)C,25,CF,CCCCCCCCCC
10.1016/j.memsci.2018.12.077,2019,Journal of Membrane Science,DM300,300,,400.0,1,0.002500,EtOH,46.1,0.52,1.07,44.13,1.044,18.4,6.3,13.7,23.79,21.71,20.0,14.0,0.70,44.50,CCO,25,CF,O=C(OC)C(C)(CC(C)(CC(C)C(OC)=O)C(OC)=O)CC(C)(C(OC)=O)C
10.1016/j.memsci.2018.12.077,2019,Journal of Membrane Science,DM300,300,,170.3,1,0.005872,IPA,60.1,0.624,1.96,76.46,0.786,15.8,6.1,16.4,23.58,7.98,20.0,,,46.80,CC(O)C,25,CF,CCCCCCCCCCCC
10.1016/j.memsci.2018.12.077,2019,Journal of Membrane Science,DM300,300,,198.4,1,0.005040,IPA,60.1,0.624,1.96,76.46,0.786,15.8,6.1,16.4,23.58,7.98,20.0,,,52.50,CC(O)C,25,CF,CCCCCCCCCCCCCC
10.1016/j.memsci.2018.12.077,2019,Journal of Membrane Science,DM300,300,,226.4,1,0.004417,IPA,60.1,0.624,1.96,76.46,0.786,15.8,6.1,16.4,23.58,7.98,20.0,,,56.40,CC(O)C,25,CF,CCCCCCCCCCCCCCCC
10.1016/j.memsci.2018.12.077,2019,Journal of Membrane Science,DM300,300,,254.5,1,0.003929,IPA,60.1,0.624,1.96,76.46,0.786,15.8,6.1,16.4,23.58,7.98,20.0,,,58.00,CC(O)C,25,CF,CCCCCCCCCCCCCCCCCC
10.1016/j.memsci.2018.12.077,2019,Journal of Membrane Science,DM300,300,,142.3,1,0.007027,EtOH,46.1,0.52,1.07,44.13,1.044,18.4,6.3,13.7,23.79,21.71,20.0,14.0,0.70,64.50,CCO,25,CF,CCCCCCCCCC
10.1016/j.memsci.2018.12.077,2019,Journal of Membrane Science,DM300,300,,338.7,1,0.002952,IPA,60.1,0.624,1.96,76.46,0.786,15.8,6.1,16.4,23.58,7.98,20.0,,,65.20,CC(O)C,25,CF,CCCCCCCCCCCCCCCCCCCCCCCC
10.1039/c7ra11827a,2017,RSC Adv,DM300,300,,174.1,0.5,0.002872,MeTHF,86.1,0.685,0.55,100.85,0.854,16.9,5,4.3,18.14,19.46,20.0,5.5,0.28,68.40,CC1CCCO1,25,CF,O=CC1=CC=C(C(F)(F)F)C=C1
10.1016/j.memsci.2018.12.077,2019,Journal of Membrane Science,DM300,300,,170.3,1,0.005872,EtOH,46.1,0.52,1.07,44.13,1.044,18.4,6.3,13.7,23.79,21.71,20.0,14.0,0.70,69.80,CCO,25,CF,CCCCCCCCCCCC
10.1016/j.memsci.2018.12.077,2019,Journal of Membrane Science,DM300,300,,678.6,1,0.001474,IPA,60.1,0.624,1.96,76.46,0.786,15.8,6.1,16.4,23.58,7.98,20.0,,,70.10,CC(O)C,25,CF,CC(=O)OCC1C(C(C(C(O1)OC2(C(C(C(O2)COC(=O)C)OC(=O)C)OC(=O)C)COC(=O)C)OC(=O)C)OC(=O)C)OC(=O)C
10.1016/j.memsci.2018.12.077,2019,Journal of Membrane Science,DM300,300,,198.4,1,0.005040,EtOH,46.1,0.52,1.07,44.13,1.044,18.4,6.3,13.7,23.79,21.71,20.0,14.0,0.70,73.60,CCO,25,CF,CCCCCCCCCCCCCC
10.1016/j.memsci.2018.12.077,2019,Journal of Membrane Science,DM300,300,,226.4,1,0.004417,EtOH,46.1,0.52,1.07,44.13,1.044,18.4,6.3,13.7,23.79,21.71,20.0,14.0,0.70,76.50,CCO,25,CF,CCCCCCCCCCCCCCCC
10.1016/j.memsci.2018.12.077,2019,Journal of Membrane Science,DM300,300,,1000.0,1,0.001000,EtOH,46.1,0.52,1.07,44.13,1.044,18.4,6.3,13.7,23.79,21.71,20.0,14.0,0.70,78.40,CCO,25,CF,O=C(C(CC(CC(C(OC)=O)C)(C(OC)=O)C)(CC(C(OC)=O)(CC(C(OC)=O)(CC(C(OC)=O)(CC(C(OC)=O)(CC(C(OC)=O)(CC(C(OC)=O)(CC(C(OC)=O)(C)C)C)C)C)C)C)C)C)OC
10.1016/j.memsci.2018.12.077,2019,Journal of Membrane Science,DM300,300,,254.5,1,0.003929,EtOH,46.1,0.52,1.07,44.13,1.044,18.4,6.3,13.7,23.79,21.71,20.0,14.0,0.70,78.90,CCO,25,CF,CCCCCCCCCCCCCCCCCC
10.1016/j.memsci.2018.12.077,2019,Journal of Membrane Science,DM300,300,,900.0,1,0.001111,IPA,60.1,0.624,1.96,76.46,0.786,15.8,6.1,16.4,23.58,7.98,20.0,,,81.30,CC(O)C,25,CF,O=C(C(CC(CC(C(OC)=O)C)(C(OC)=O)C)(CC(C(OC)=O)(CC(C(OC)=O)(CC(C(OC)=O)(CC(C(OC)=O)(CC(C(OC)=O)(CC(C(OC)=O)(C)C)C)C)C)C)C)C)OC
10.1016/j.memsci.2018.12.077,2019,Journal of Membrane Science,DM300,300,,1100.0,1,0.000909,IPA,60.1,0.624,1.96,76.46,0.786,15.8,6.1,16.4,23.58,7.98,20.0,,,81.60,CC(O)C,25,CF,O=C(C(CC(CC(C(OC)=O)C)(C(OC)=O)C)(CC(C(OC)=O)(CC(C(OC)=O)(CC(C(OC)=O)(CC(C(OC)=O)(CC(C(OC)=O)(CC(C(OC)=O)(CC(C(OC)=O)(C)C)C)C)C)C)C)C)C)OC
10.1016/j.memsci.2018.12.077,2019,Journal of Membrane Science,DM300,300,,1200.0,1,0.000833,IPA,60.1,0.624,1.96,76.46,0.786,15.8,6.1,16.4,23.58,7.98,20.0,,,81.70,CC(O)C,25,CF,O=C(C(CC(CC(C(OC)=O)C)(C(OC)=O)C)(CC(C(OC)=O)(CC(C(OC)=O)(CC(C(OC)=O)(CC(C(OC)=O)(CC(C(OC)=O)(CC(C(OC)=O)(CC(C(OC)=O)(CC(C(OC)=O)(CC(C(OC)=O)(C)C)C)C)C)C)C)C)C)C)C)OC
10.1016/j.memsci.2018.12.077,2019,Journal of Membrane Science,DM300,300,,1000.0,1,0.001000,IPA,60.1,0.624,1.96,76.46,0.786,15.8,6.1,16.4,23.58,7.98,20.0,,,81.90,CC(O)C,25,CF,O=C(C(CC(CC(C(OC)=O)C)(C(OC)=O)C)(CC(C(OC)=O)(CC(C(OC)=O)(CC(C(OC)=O)(CC(C(OC)=O)(CC(C(OC)=O)(CC(C(OC)=O)(CC(C(OC)=O)(C)C)C)C)C)C)C)C)C)OC
10.1016/j.memsci.2018.12.077,2019,Journal of Membrane Science,DM300,300,,300.0,1,0.003333,IPA,60.1,0.624,1.96,76.46,0.786,15.8,6.1,16.4,23.58,7.98,20.0,,,83.30,CC(O)C,25,CF,O=C(OC)C(C)(CC(C)(CC(C)C(OC)=O)C(OC)=O)C
10.1016/j.memsci.2018.12.077,2019,Journal of Membrane Science,DM300,300,,400.0,1,0.002500,IPA,60.1,0.624,1.96,76.46,0.786,15.8,6.1,16.4,23.58,7.98,20.0,,,83.60,CC(O)C,25,CF,O=C(OC)C(C)(CC(C)(CC(C)C(OC)=O)C(OC)=O)CC(C)(C(OC)=O)C
10.1016/j.memsci.2018.12.077,2019,Journal of Membrane Science,DM300,300,,200.0,1,0.005000,EtOH,46.1,0.52,1.07,44.13,1.044,18.4,6.3,13.7,23.79,21.71,20.0,14.0,0.70,84.00,CCO,25,CF,CC1(C(OC)=O)CCC1(C(OC)=O)C
10.1016/j.memsci.2018.12.077,2019,Journal of Membrane Science,DM300,300,,500.0,1,0.002000,IPA,60.1,0.624,1.96,76.46,0.786,15.8,6.1,16.4,23.58,7.98,20.0,,,84.80,CC(O)C,25,CF,O=C(C(CC(CC(C(OC)=O)C)(C(OC)=O)C)(CC(C(OC)=O)(CC(C(OC)=O)(C)C)C)C)OC
10.1016/j.memsci.2018.12.077,2019,Journal of Membrane Science,DM300,300,,600.0,1,0.001667,IPA,60.1,0.624,1.96,76.46,0.786,15.8,6.1,16.4,23.58,7.98,20.0,,,84.80,CC(O)C,25,CF,O=C(C(CC(CC(C(OC)=O)C)(C(OC)=O)C)(CC(C(OC)=O)(CC(C(OC)=O)(CC(C(OC)=O)(C)C)C)C)C)OC
10.1016/j.memsci.2018.12.077,2019,Journal of Membrane Science,DM300,300,,678.6,1,0.001474,EtOH,46.1,0.52,1.07,44.13,1.044,18.4,6.3,13.7,23.79,21.71,20.0,14.0,0.70,86.80,CCO,25,CF,CC(=O)OCC1C(C(C(C(O1)OC2(C(C(C(O2)COC(=O)C)OC(=O)C)OC(=O)C)COC(=O)C)OC(=O)C)OC(=O)C)OC(=O)C
10.1016/j.memsci.2018.12.077,2019,Journal of Membrane Science,DM300,300,,700.0,1,0.001429,IPA,60.1,0.624,1.96,76.46,0.786,15.8,6.1,16.4,23.58,7.98,20.0,,,86.80,CC(O)C,25,CF,O=C(C(CC(CC(C(OC)=O)C)(C(OC)=O)C)(CC(C(OC)=O)(CC(C(OC)=O)(CC(C(OC)=O)(CC(C(OC)=O)(C)C)C)C)C)C)OC
10.1016/j.memsci.2018.12.077,2019,Journal of Membrane Science,DM300,300,,800.0,1,0.001250,IPA,60.1,0.624,1.96,76.46,0.786,15.8,6.1,16.4,23.58,7.98,20.0,,,86.80,CC(O)C,25,CF,O=C(C(CC(CC(C(OC)=O)C)(C(OC)=O)C)(CC(C(OC)=O)(CC(C(OC)=O)(CC(C(OC)=O)(CC(C(OC)=O)(CC(C(OC)=O)(C)C)C)C)C)C)C)OC
10.1016/j.memsci.2018.12.077,2019,Journal of Membrane Science,DM300,300,,900.0,1,0.001111,EtOH,46.1,0.52,1.07,44.13,1.044,18.4,6.3,13.7,23.79,21.71,20.0,14.0,0.70,87.70,CCO,25,CF,O=C(C(CC(CC(C(OC)=O)C)(C(OC)=O)C)(CC(C(OC)=O)(CC(C(OC)=O)(CC(C(OC)=O)(CC(C(OC)=O)(CC(C(OC)=O)(CC(C(OC)=O)(C)C)C)C)C)C)C)C)OC
10.1016/j.cherd.2010.07.002,2011,chemical engineering research and design,DM300,300,,180.2,0.1,0.000555,EtOH,46.1,0.52,1.07,44.13,1.044,18.4,6.3,13.7,23.79,21.71,20.0,24.4,1.22,87.80,CCO,25,CF,C1=CC(=C(C=C1/C=C/C(=O)O)O)O
10.1016/j.memsci.2018.12.077,2019,Journal of Membrane Science,DM300,300,,300.0,1,0.003333,EtOH,46.1,0.52,1.07,44.13,1.044,18.4,6.3,13.7,23.79,21.71,20.0,14.0,0.70,88.00,CCO,25,CF,O=C(OC)C(C)(CC(C)(CC(C)C(OC)=O)C(OC)=O)C
10.1016/j.memsci.2018.12.077,2019,Journal of Membrane Science,DM300,300,,600.0,1,0.001667,EtOH,46.1,0.52,1.07,44.13,1.044,18.4,6.3,13.7,23.79,21.71,20.0,14.0,0.70,91.20,CCO,25,CF,O=C(C(CC(CC(C(OC)=O)C)(C(OC)=O)C)(CC(C(OC)=O)(CC(C(OC)=O)(CC(C(OC)=O)(C)C)C)C)C)OC
10.1016/j.memsci.2018.12.077,2019,Journal of Membrane Science,DM300,300,,700.0,1,0.001429,EtOH,46.1,0.52,1.07,44.13,1.044,18.4,6.3,13.7,23.79,21.71,20.0,14.0,0.70,91.30,CCO,25,CF,O=C(C(CC(CC(C(OC)=O)C)(C(OC)=O)C)(CC(C(OC)=O)(CC(C(OC)=O)(CC(C(OC)=O)(CC(C(OC)=O)(C)C)C)C)C)C)OC
10.1016/j.memsci.2018.12.077,2019,Journal of Membrane Science,DM300,300,,800.0,1,0.001250,EtOH,46.1,0.52,1.07,44.13,1.044,18.4,6.3,13.7,23.79,21.71,20.0,14.0,0.70,92.00,CCO,25,CF,O=C(C(CC(CC(C(OC)=O)C)(C(OC)=O)C)(CC(C(OC)=O)(CC(C(OC)=O)(CC(C(OC)=O)(CC(C(OC)=O)(CC(C(OC)=O)(C)C)C)C)C)C)C)OC
10.1016/j.memsci.2018.12.077,2019,Journal of Membrane Science,DM300,300,,500.0,1,0.002000,EtOH,46.1,0.52,1.07,44.13,1.044,18.4,6.3,13.7,23.79,21.71,20.0,14.0,0.70,92.30,CCO,25,CF,O=C(C(CC(CC(C(OC)=O)C)(C(OC)=O)C)(CC(C(OC)=O)(CC(C(OC)=O)(C)C)C)C)OC
10.1016/j.cherd.2010.07.002,2011,chemical engineering research and design,DM300,300,,360.3,0.5,0.001388,EtOH,46.1,0.52,1.07,44.13,1.044,18.4,6.3,13.7,23.79,21.71,20.0,24.4,1.22,94.00,CCO,25,CF,C1=CC(=C(C=C1CC(C(=O)O)OC(=O)C=CC2=CC(=C(C=C2)O)O)O)O
10.1016/j.memsci.2018.12.077,2019,Journal of Membrane Science,DM300,300,,370.0,1,0.002703,EtOH,46.1,0.52,1.07,44.13,1.044,18.4,6.3,13.7,23.79,21.71,20.0,14.0,0.70,94.00,CCO,25,CF,CC(CC(C(C)(C)C(C1=CC=CC=C1)(C)C)C2=CC=CC=C2)C3=CC=CC=C3
10.1016/j.memsci.2018.12.077,2019,Journal of Membrane Science,DM300,300,,474.0,1,0.002110,EtOH,46.1,0.52,1.07,44.13,1.044,18.4,6.3,13.7,23.79,21.71,20.0,14.0,0.70,94.40,CCO,25,CF,CC(C1=CC=CC=C1)CC(CC(C(C)(C)C(C2=CC=CC=C2)(C)C)C3=CC=CC=C3)C4=CC=CC=C4
10.1016/j.memsci.2018.12.077,2019,Journal of Membrane Science,DM300,300,,578.0,1,0.001730,EtOH,46.1,0.52,1.07,44.13,1.044,18.4,6.3,13.7,23.79,21.71,20.0,14.0,0.70,94.40,CCO,25,CF,CC(C1=CC=CC=C1)CC(C2=CC=CC=C2)CC(CC(C(C)(C)C(C3=CC=CC=C3)(C)C)C4=CC=CC=C4)C5=CC=CC=C5
10.1016/j.memsci.2018.12.077,2019,Journal of Membrane Science,DM300,300,,266.0,1,0.003759,EtOH,46.1,0.52,1.07,44.13,1.044,18.4,6.3,13.7,23.79,21.71,20.0,14.0,0.70,95.00,CCO,25,CF,CC(C(C)(C)C(C1=CC=CC=C1)(C)C)C2=CC=CC=C2
10.1021/acssuschemeng.5b00734,2015,ASCECG,DM300,300,,374.0,56.1,0.150000,EtOH,46.1,0.52,1.07,44.13,1.044,18.4,6.3,13.7,23.79,21.71,20.0,12.7,0.64,95.00,CCO,23,CF,OCC[P](CCCC)(CCCC)CCCC.[I]
10.1016/j.memsci.2018.12.077,2019,Journal of Membrane Science,DM300,300,,682.0,1,0.001466,EtOH,46.1,0.52,1.07,44.13,1.044,18.4,6.3,13.7,23.79,21.71,20.0,14.0,0.70,95.30,CCO,25,CF,CC(C1=CC=CC=C1)CC(C2=CC=CC=C2)CC(C3=CC=CC=C3)CC(CC(C(C)(C)C(C4=CC=CC=C4)(C)C)C5=CC=CC=C5)C6=CC=CC=C6
10.1016/j.memsci.2018.12.077,2019,Journal of Membrane Science,DM300,300,,890.0,1,0.001124,EtOH,46.1,0.52,1.07,44.13,1.044,18.4,6.3,13.7,23.79,21.71,20.0,14.0,0.70,96.30,CCO,25,CF,CC(C1=CC=CC=C1)CC(C2=CC=CC=C2)CC(C3=CC=CC=C3)CC(C4=CC=CC=C4)CC(C5=CC=CC=C5)CC(CC(C(C)(C)C(C6=CC=CC=C6)(C)C)C7=CC=CC=C7)C8=CC=CC=C8
10.1016/j.memsci.2018.12.077,2019,Journal of Membrane Science,DM300,300,,786.0,1,0.001272,EtOH,46.1,0.52,1.07,44.13,1.044,18.4,6.3,13.7,23.79,21.71,20.0,14.0,0.70,96.70,CCO,25,CF,CC(C1=CC=CC=C1)CC(C2=CC=CC=C2)CC(C3=CC=CC=C3)CC(C4=CC=CC=C4)CC(CC(C(C)(C)C(C5=CC=CC=C5)(C)C)C6=CC=CC=C6)C7=CC=CC=C7
10.1016/j.memsci.2018.12.077,2019,Journal of Membrane Science,DM300,300,,994.0,1,0.001006,EtOH,46.1,0.52,1.07,44.13,1.044,18.4,6.3,13.7,23.79,21.71,20.0,14.0,0.70,97.80,CCO,25,CF,CC(C1=CC=CC=C1)CC(C2=CC=CC=C2)CC(C3=CC=CC=C3)CC(C4=CC=CC=C4)CC(C5=CC=CC=C5)CC(C6=CC=CC=C6)CC(CC(C(C)(C)C(C7=CC=CC=C7)(C)C)C8=CC=CC=C8)C9=CC=CC=C9
10.1016/j.memsci.2018.12.077,2019,Journal of Membrane Science,DM300,300,,1098.0,1,0.000911,EtOH,46.1,0.52,1.07,44.13,1.044,18.4,6.3,13.7,23.79,21.71,20.0,14.0,0.70,99.00,CCO,25,CF,CC(C1=CC=CC=C1)CC(C2=CC=CC=C2)CC(C3=CC=CC=C3)CC(C4=CC=CC=C4)CC(C5=CC=CC=C5)CC(C6=CC=CC=C6)CC(C7=CC=CC=C7)CC(CC(C(C)(C)C(C8=CC=CC=C8)(C)C)C9=CC=CC=C9)C%10=CC=CC=C%10
10.1039/c7ra11827a,2017,RSC Adv,DM300,300,,502.4,0.5,0.000995,MeTHF,86.1,0.685,0.55,100.85,0.854,16.9,5,4.3,18.14,19.46,20.0,5.5,0.28,99.80,CC1CCCO1,25,CF,FC(C(C=C1)=CC=C1C2N=C(C3=CC=C(C(F)(F)F)C=C3)NC2C4=CC=C(C(F)(F)F)C=C4)(F)F
10.1016/j.memsci.2018.12.077,2019,Journal of Membrane Science,DM300,300,,1820.0,1,0.000549,EtOH,46.1,0.52,1.07,44.13,1.044,18.4,6.3,13.7,23.79,21.71,20.0,14.0,0.70,100.00,CCO,25,CF,CC(C1=CC=CC=C1)CC(C2=CC=CC=C2)CC(C3=CC=CC=C3)CC(C4=CC=CC=C4)CC(C5=CC=CC=C5)CC(C6=CC=CC=C6)CC(C7=CC=CC=C7)CC(C8=CC=CC=C8)CC(C9=CC=CC=C9)CC(C%10=CC=CC=C%10)CC(C%11=CC=CC=C%11)CC(C%12=CC=CC=C%12)CC(C%13=CC=CC=C%13)CC(C%14=CC=CC=C%14)CC(CC(C(C)(C)C(C%15=CC=CC=C%15)(C)C)C%16=CC=CC=C%16)C%17=CC=CC=C%17