DOI,Year,Journal,Membrane,MWCO,Membrane type,Solute,Solute W conc,Solute M conc,Solvent,Solvent Mw,Solvent diameter,Solvent viscosity,Solvent molar volume,Density,H1,H2,H3,H4,Livingston parameter,Pressure,Flux,Permeance,Rejection,Solvent Smile,Temperature,Process configuration,Solute smile
10.1016/j.memsci.2018.12.077,2019,Journal of Membrane Science,DM300,300,,142.3,1,0.007027,MEK,75.1,0.667,0.43,93.3,0.805,16,9,5.1,19.05,47.02,20.0,,,76.10,CC(CC)=O,25,CF,CCCCCCCCCC
10.1016/j.memsci.2018.12.077,2019,Journal of Membrane Science,DM300,300,,142.3,1,0.007027,MEK,75.1,0.667,0.43,93.3,0.805,16,9,5.1,19.05,47.02,30.0,,,80.40,CC(CC)=O,25,CF,CCCCCCCCCC
10.1016/j.memsci.2018.12.077,2019,Journal of Membrane Science,DM300,300,,1100.0,1,0.000909,MEK,75.1,0.667,0.43,93.3,0.805,16,9,5.1,19.05,47.02,40.0,,,84.70,CC(CC)=O,25,CF,O=C(C(CC(CC(C(OC)=O)C)(C(OC)=O)C)(CC(C(OC)=O)(CC(C(OC)=O)(CC(C(OC)=O)(CC(C(OC)=O)(CC(C(OC)=O)(CC(C(OC)=O)(CC(C(OC)=O)(C)C)C)C)C)C)C)C)C)OC
10.1016/j.memsci.2018.12.077,2019,Journal of Membrane Science,DM300,300,,142.3,1,0.007027,MEK,75.1,0.667,0.43,93.3,0.805,16,9,5.1,19.05,47.02,40.0,,,85.00,CC(CC)=O,25,CF,CCCCCCCCCC
10.1016/j.memsci.2018.12.077,2019,Journal of Membrane Science,DM300,300,,170.3,1,0.005872,MEK,75.1,0.667,0.43,93.3,0.805,16,9,5.1,19.05,47.02,20.0,,,88.10,CC(CC)=O,25,CF,CCCCCCCCCCCC
10.1016/j.memsci.2018.12.077,2019,Journal of Membrane Science,DM300,300,,1000.0,1,0.001000,MEK,75.1,0.667,0.43,93.3,0.805,16,9,5.1,19.05,47.02,40.0,,,89.70,CC(CC)=O,25,CF,O=C(C(CC(CC(C(OC)=O)C)(C(OC)=O)C)(CC(C(OC)=O)(CC(C(OC)=O)(CC(C(OC)=O)(CC(C(OC)=O)(CC(C(OC)=O)(CC(C(OC)=O)(CC(C(OC)=O)(C)C)C)C)C)C)C)C)C)OC
10.1016/j.memsci.2018.12.077,2019,Journal of Membrane Science,DM300,300,,200.0,1,0.005000,MEK,75.1,0.667,0.43,93.3,0.805,16,9,5.1,19.05,47.02,20.0,,,90.00,CC(CC)=O,25,CF,CC1(C(OC)=O)CCC1(C(OC)=O)C
10.1021/op400037h,2013,OPRD,DM300,300,,324.4,3.2,0.009864,THF,72.1,0.637,0.48,81.11,0.889,16.8,5.7,8,19.46,29.29,30.0,,,90.00,C1CCCO1,20,DE,COC1=CC2=C(C=CN=C2C=C1)C(C3CC4CCN3CC4C=C)O
10.1016/j.memsci.2018.12.077,2019,Journal of Membrane Science,DM300,300,,200.0,1,0.005000,MEK,75.1,0.667,0.43,93.3,0.805,16,9,5.1,19.05,47.02,40.0,,,90.10,CC(CC)=O,25,CF,CC1(C(OC)=O)CCC1(C(OC)=O)C
10.1016/j.memsci.2018.12.077,2019,Journal of Membrane Science,DM300,300,,1000.0,1,0.001000,MEK,75.1,0.667,0.43,93.3,0.805,16,9,5.1,19.05,47.02,30.0,,,91.70,CC(CC)=O,25,CF,O=C(C(CC(CC(C(OC)=O)C)(C(OC)=O)C)(CC(C(OC)=O)(CC(C(OC)=O)(CC(C(OC)=O)(CC(C(OC)=O)(CC(C(OC)=O)(CC(C(OC)=O)(CC(C(OC)=O)(C)C)C)C)C)C)C)C)C)OC
10.1016/j.memsci.2018.12.077,2019,Journal of Membrane Science,DM300,300,,170.3,1,0.005872,MEK,75.1,0.667,0.43,93.3,0.805,16,9,5.1,19.05,47.02,30.0,,,91.90,CC(CC)=O,25,CF,CCCCCCCCCCCC
10.1016/j.memsci.2018.12.077,2019,Journal of Membrane Science,DM300,300,,900.0,1,0.001111,MEK,75.1,0.667,0.43,93.3,0.805,16,9,5.1,19.05,47.02,40.0,,,92.00,CC(CC)=O,25,CF,O=C(C(CC(CC(C(OC)=O)C)(C(OC)=O)C)(CC(C(OC)=O)(CC(C(OC)=O)(CC(C(OC)=O)(CC(C(OC)=O)(CC(C(OC)=O)(CC(C(OC)=O)(C)C)C)C)C)C)C)C)OC
10.1016/j.memsci.2018.12.077,2019,Journal of Membrane Science,DM300,300,,198.4,1,0.005040,MEK,75.1,0.667,0.43,93.3,0.805,16,9,5.1,19.05,47.02,20.0,,,92.40,CC(CC)=O,25,CF,CCCCCCCCCCCCCC
10.1016/j.memsci.2018.12.077,2019,Journal of Membrane Science,DM300,300,,170.3,1,0.005872,MEK,75.1,0.667,0.43,93.3,0.805,16,9,5.1,19.05,47.02,40.0,,,93.00,CC(CC)=O,25,CF,CCCCCCCCCCCC
10.1016/j.memsci.2018.12.077,2019,Journal of Membrane Science,DM300,300,,900.0,1,0.001111,MEK,75.1,0.667,0.43,93.3,0.805,16,9,5.1,19.05,47.02,30.0,,,93.90,CC(CC)=O,25,CF,O=C(C(CC(CC(C(OC)=O)C)(C(OC)=O)C)(CC(C(OC)=O)(CC(C(OC)=O)(CC(C(OC)=O)(CC(C(OC)=O)(CC(C(OC)=O)(CC(C(OC)=O)(C)C)C)C)C)C)C)C)OC
10.1016/j.memsci.2018.12.077,2019,Journal of Membrane Science,DM300,300,,226.4,1,0.004417,MEK,75.1,0.667,0.43,93.3,0.805,16,9,5.1,19.05,47.02,20.0,,,94.10,CC(CC)=O,25,CF,CCCCCCCCCCCCCCCC
10.1016/j.memsci.2018.12.077,2019,Journal of Membrane Science,DM300,300,,226.4,1,0.004417,MEK,75.1,0.667,0.43,93.3,0.805,16,9,5.1,19.05,47.02,40.0,,,94.10,CC(CC)=O,25,CF,CCCCCCCCCCCCCCCC
10.1016/j.memsci.2018.12.077,2019,Journal of Membrane Science,DM300,300,,800.0,1,0.001250,MEK,75.1,0.667,0.43,93.3,0.805,16,9,5.1,19.05,47.02,30.0,,,94.20,CC(CC)=O,25,CF,O=C(C(CC(CC(C(OC)=O)C)(C(OC)=O)C)(CC(C(OC)=O)(CC(C(OC)=O)(CC(C(OC)=O)(CC(C(OC)=O)(CC(C(OC)=O)(C)C)C)C)C)C)C)OC
10.1016/j.memsci.2018.12.077,2019,Journal of Membrane Science,DM300,300,,400.0,1,0.002500,MEK,75.1,0.667,0.43,93.3,0.805,16,9,5.1,19.05,47.02,20.0,,,94.30,CC(CC)=O,25,CF,O=C(OC)C(C)(CC(C)(CC(C)C(OC)=O)C(OC)=O)CC(C)(C(OC)=O)C
10.1016/j.memsci.2018.12.077,2019,Journal of Membrane Science,DM300,300,,400.0,1,0.002500,MEK,75.1,0.667,0.43,93.3,0.805,16,9,5.1,19.05,47.02,30.0,,,94.40,CC(CC)=O,25,CF,O=C(OC)C(C)(CC(C)(CC(C)C(OC)=O)C(OC)=O)CC(C)(C(OC)=O)C
10.1016/j.memsci.2018.12.077,2019,Journal of Membrane Science,DM300,300,,254.5,1,0.003929,MEK,75.1,0.667,0.43,93.3,0.805,16,9,5.1,19.05,47.02,20.0,,,94.90,CC(CC)=O,25,CF,CCCCCCCCCCCCCCCCCC
10.1016/j.memsci.2018.12.077,2019,Journal of Membrane Science,DM300,300,,900.0,1,0.001111,MEK,75.1,0.667,0.43,93.3,0.805,16,9,5.1,19.05,47.02,20.0,,,95.00,CC(CC)=O,25,CF,O=C(C(CC(CC(C(OC)=O)C)(C(OC)=O)C)(CC(C(OC)=O)(CC(C(OC)=O)(CC(C(OC)=O)(CC(C(OC)=O)(CC(C(OC)=O)(CC(C(OC)=O)(C)C)C)C)C)C)C)C)OC
10.1016/j.memsci.2018.12.077,2019,Journal of Membrane Science,DM300,300,,226.4,1,0.004417,MEK,75.1,0.667,0.43,93.3,0.805,16,9,5.1,19.05,47.02,30.0,,,95.40,CC(CC)=O,25,CF,CCCCCCCCCCCCCCCC
10.1016/j.memsci.2018.12.077,2019,Journal of Membrane Science,DM300,300,,300.0,1,0.003333,MEK,75.1,0.667,0.43,93.3,0.805,16,9,5.1,19.05,47.02,30.0,,,95.50,CC(CC)=O,25,CF,O=C(OC)C(C)(CC(C)(CC(C)C(OC)=O)C(OC)=O)C
10.1016/j.memsci.2018.12.077,2019,Journal of Membrane Science,DM300,300,,300.0,1,0.003333,MEK,75.1,0.667,0.43,93.3,0.805,16,9,5.1,19.05,47.02,20.0,,,95.70,CC(CC)=O,25,CF,O=C(OC)C(C)(CC(C)(CC(C)C(OC)=O)C(OC)=O)C
10.1016/j.memsci.2018.12.077,2019,Journal of Membrane Science,DM300,300,,500.0,1,0.002000,MEK,75.1,0.667,0.43,93.3,0.805,16,9,5.1,19.05,47.02,30.0,,,96.20,CC(CC)=O,25,CF,O=C(C(CC(CC(C(OC)=O)C)(C(OC)=O)C)(CC(C(OC)=O)(CC(C(OC)=O)(C)C)C)C)OC
10.1016/j.memsci.2018.12.077,2019,Journal of Membrane Science,DM300,300,,254.5,1,0.003929,MEK,75.1,0.667,0.43,93.3,0.805,16,9,5.1,19.05,47.02,40.0,,,96.30,CC(CC)=O,25,CF,CCCCCCCCCCCCCCCCCC
10.1021/op400037h,2013,OPRD,DM300,300,,414.5,4.1,0.009891,THF,72.1,0.637,0.48,81.11,0.889,16.8,5.7,8,19.46,29.29,30.0,25.7,0.86,96.70,C1CCCO1,20,DE,[H][C@@]1([C@@H](C2=CC=NC3=CC=C(C=C23)O)OC(C4=CC=CC=C4)=O)C[C@@H]5CC[N@]1C[C@@H]5C=C
10.1016/j.memsci.2018.12.077,2019,Journal of Membrane Science,DM300,300,,198.4,1,0.005040,MEK,75.1,0.667,0.43,93.3,0.805,16,9,5.1,19.05,47.02,40.0,,,96.80,CC(CC)=O,25,CF,CCCCCCCCCCCCCC
10.1016/j.memsci.2018.12.077,2019,Journal of Membrane Science,DM300,300,,600.0,1,0.001667,MEK,75.1,0.667,0.43,93.3,0.805,16,9,5.1,19.05,47.02,30.0,,,96.80,CC(CC)=O,25,CF,O=C(C(CC(CC(C(OC)=O)C)(C(OC)=O)C)(CC(C(OC)=O)(CC(C(OC)=O)(CC(C(OC)=O)(C)C)C)C)C)OC
10.1016/j.memsci.2018.12.077,2019,Journal of Membrane Science,DM300,300,,700.0,1,0.001429,MEK,75.1,0.667,0.43,93.3,0.805,16,9,5.1,19.05,47.02,30.0,,,96.90,CC(CC)=O,25,CF,O=C(C(CC(CC(C(OC)=O)C)(C(OC)=O)C)(CC(C(OC)=O)(CC(C(OC)=O)(CC(C(OC)=O)(CC(C(OC)=O)(C)C)C)C)C)C)OC
10.1016/j.memsci.2018.12.077,2019,Journal of Membrane Science,DM300,300,,800.0,1,0.001250,MEK,75.1,0.667,0.43,93.3,0.805,16,9,5.1,19.05,47.02,40.0,,,96.90,CC(CC)=O,25,CF,O=C(C(CC(CC(C(OC)=O)C)(C(OC)=O)C)(CC(C(OC)=O)(CC(C(OC)=O)(CC(C(OC)=O)(CC(C(OC)=O)(CC(C(OC)=O)(C)C)C)C)C)C)C)OC
10.1016/j.memsci.2018.12.077,2019,Journal of Membrane Science,DM300,300,,1000.0,1,0.001000,MEK,75.1,0.667,0.43,93.3,0.805,16,9,5.1,19.05,47.02,20.0,,,97.10,CC(CC)=O,25,CF,O=C(C(CC(CC(C(OC)=O)C)(C(OC)=O)C)(CC(C(OC)=O)(CC(C(OC)=O)(CC(C(OC)=O)(CC(C(OC)=O)(CC(C(OC)=O)(CC(C(OC)=O)(CC(C(OC)=O)(C)C)C)C)C)C)C)C)C)OC
10.1021/op400037h,2013,OPRD,DM300,300,,428.5,4.3,0.010035,THF,72.1,0.637,0.48,81.11,0.889,16.8,5.7,8,19.46,29.29,30.0,,,97.10,C1CCCO1,20,DE,[H][C@@]1([C@@H](C2=CC=NC3=CC=C(C=C23)OC)OC(C4=CC=CC=C4)=O)C[C@@H]5CC[N@]1C[C@@H]5C=C
10.1016/j.memsci.2018.12.077,2019,Journal of Membrane Science,DM300,300,,198.4,1,0.005040,MEK,75.1,0.667,0.43,93.3,0.805,16,9,5.1,19.05,47.02,30.0,,,97.60,CC(CC)=O,25,CF,CCCCCCCCCCCCCC
10.1016/j.memsci.2018.12.077,2019,Journal of Membrane Science,DM300,300,,500.0,1,0.002000,MEK,75.1,0.667,0.43,93.3,0.805,16,9,5.1,19.05,47.02,20.0,,,97.60,CC(CC)=O,25,CF,O=C(C(CC(CC(C(OC)=O)C)(C(OC)=O)C)(CC(C(OC)=O)(CC(C(OC)=O)(C)C)C)C)OC
10.1016/j.memsci.2018.12.077,2019,Journal of Membrane Science,DM300,300,,300.0,1,0.003333,MEK,75.1,0.667,0.43,93.3,0.805,16,9,5.1,19.05,47.02,40.0,,,98.20,CC(CC)=O,25,CF,O=C(OC)C(C)(CC(C)(CC(C)C(OC)=O)C(OC)=O)C
10.1016/j.memsci.2018.12.077,2019,Journal of Membrane Science,DM300,300,,500.0,1,0.002000,MEK,75.1,0.667,0.43,93.3,0.805,16,9,5.1,19.05,47.02,40.0,,,98.40,CC(CC)=O,25,CF,O=C(C(CC(CC(C(OC)=O)C)(C(OC)=O)C)(CC(C(OC)=O)(CC(C(OC)=O)(C)C)C)C)OC
10.1016/j.memsci.2018.12.077,2019,Journal of Membrane Science,DM300,300,,400.0,1,0.002500,MEK,75.1,0.667,0.43,93.3,0.805,16,9,5.1,19.05,47.02,40.0,,,98.50,CC(CC)=O,25,CF,O=C(OC)C(C)(CC(C)(CC(C)C(OC)=O)C(OC)=O)CC(C)(C(OC)=O)C
10.1016/j.memsci.2018.12.077,2019,Journal of Membrane Science,DM300,300,,700.0,1,0.001429,MEK,75.1,0.667,0.43,93.3,0.805,16,9,5.1,19.05,47.02,20.0,,,98.60,CC(CC)=O,25,CF,O=C(C(CC(CC(C(OC)=O)C)(C(OC)=O)C)(CC(C(OC)=O)(CC(C(OC)=O)(CC(C(OC)=O)(CC(C(OC)=O)(C)C)C)C)C)C)OC
10.1016/j.memsci.2018.12.077,2019,Journal of Membrane Science,DM300,300,,338.7,1,0.002952,MEK,75.1,0.667,0.43,93.3,0.805,16,9,5.1,19.05,47.02,20.0,,,98.70,CC(CC)=O,25,CF,CCCCCCCCCCCCCCCCCCCCCCCC
10.1016/j.memsci.2018.12.077,2019,Journal of Membrane Science,DM300,300,,678.6,1,0.001474,MEK,75.1,0.667,0.43,93.3,0.805,16,9,5.1,19.05,47.02,40.0,,,98.80,CC(CC)=O,25,CF,CC(=O)OCC1C(C(C(C(O1)OC2(C(C(C(O2)COC(=O)C)OC(=O)C)OC(=O)C)COC(=O)C)OC(=O)C)OC(=O)C)OC(=O)C
10.1016/j.memsci.2018.12.077,2019,Journal of Membrane Science,DM300,300,,254.5,1,0.003929,MEK,75.1,0.667,0.43,93.3,0.805,16,9,5.1,19.05,47.02,30.0,,,98.90,CC(CC)=O,25,CF,CCCCCCCCCCCCCCCCCC
10.1016/j.memsci.2018.12.077,2019,Journal of Membrane Science,DM300,300,,700.0,1,0.001429,MEK,75.1,0.667,0.43,93.3,0.805,16,9,5.1,19.05,47.02,40.0,,,99.00,CC(CC)=O,25,CF,O=C(C(CC(CC(C(OC)=O)C)(C(OC)=O)C)(CC(C(OC)=O)(CC(C(OC)=O)(CC(C(OC)=O)(CC(C(OC)=O)(C)C)C)C)C)C)OC
10.1039/c2gc36407g,2013,Green Chem,DM300,300,,0.0,4.0,,THF,72.1,0.637,0.48,81.11,0.889,16.8,5.7,8,19.46,29.29,8.0,12.8,1.61,99.00,C1CCCO1,20,CF,O=N(CC(C(C(OC)=O)C(OC)=O)C1=CC=CC=C1)=O
10.1016/j.memsci.2018.12.077,2019,Journal of Membrane Science,DM300,300,,338.7,1,0.002952,MEK,75.1,0.667,0.43,93.3,0.805,16,9,5.1,19.05,47.02,30.0,,,99.10,CC(CC)=O,25,CF,CCCCCCCCCCCCCCCCCCCCCCCC
10.1016/j.memsci.2018.12.077,2019,Journal of Membrane Science,DM300,300,,600.0,1,0.001667,MEK,75.1,0.667,0.43,93.3,0.805,16,9,5.1,19.05,47.02,20.0,,,99.10,CC(CC)=O,25,CF,O=C(C(CC(CC(C(OC)=O)C)(C(OC)=O)C)(CC(C(OC)=O)(CC(C(OC)=O)(CC(C(OC)=O)(C)C)C)C)C)OC
10.1016/j.memsci.2018.12.077,2019,Journal of Membrane Science,DM300,300,,600.0,1,0.001667,MEK,75.1,0.667,0.43,93.3,0.805,16,9,5.1,19.05,47.02,40.0,,,99.10,CC(CC)=O,25,CF,O=C(C(CC(CC(C(OC)=O)C)(C(OC)=O)C)(CC(C(OC)=O)(CC(C(OC)=O)(CC(C(OC)=O)(C)C)C)C)C)OC
10.1016/j.memsci.2018.12.077,2019,Journal of Membrane Science,DM300,300,,1100.0,1,0.000909,MEK,75.1,0.667,0.43,93.3,0.805,16,9,5.1,19.05,47.02,20.0,,,99.10,CC(CC)=O,25,CF,O=C(C(CC(CC(C(OC)=O)C)(C(OC)=O)C)(CC(C(OC)=O)(CC(C(OC)=O)(CC(C(OC)=O)(CC(C(OC)=O)(CC(C(OC)=O)(CC(C(OC)=O)(CC(C(OC)=O)(C)C)C)C)C)C)C)C)C)OC
10.1039/c2gc36407g,2013,Green Chem,DM300,300,,0.0,4.0,,THF,72.1,0.637,0.48,81.11,0.889,16.8,5.7,8,19.46,29.29,16.0,21.1,1.33,99.30,C1CCCO1,20,CF,O=N(CC(C(C(OC)=O)C(OC)=O)C1=CC=CC=C1)=O
10.1016/j.memsci.2018.12.077,2019,Journal of Membrane Science,DM300,300,,338.7,1,0.002952,MEK,75.1,0.667,0.43,93.3,0.805,16,9,5.1,19.05,47.02,40.0,,,99.40,CC(CC)=O,25,CF,CCCCCCCCCCCCCCCCCCCCCCCC
10.1016/j.memsci.2018.12.077,2019,Journal of Membrane Science,DM300,300,,1100.0,1,0.000909,MEK,75.1,0.667,0.43,93.3,0.805,16,9,5.1,19.05,47.02,30.0,,,99.40,CC(CC)=O,25,CF,O=C(C(CC(CC(C(OC)=O)C)(C(OC)=O)C)(CC(C(OC)=O)(CC(C(OC)=O)(CC(C(OC)=O)(CC(C(OC)=O)(CC(C(OC)=O)(CC(C(OC)=O)(CC(C(OC)=O)(C)C)C)C)C)C)C)C)C)OC
10.1039/c2gc36407g,2013,Green Chem,DM300,300,,0.0,4.0,,THF,72.1,0.637,0.48,81.11,0.889,16.8,5.7,8,19.46,29.29,20.0,31.1,1.56,99.40,C1CCCO1,20,CF,O=N(CC(C(C(OC)=O)C(OC)=O)C1=CC=CC=C1)=O
10.1039/c2gc36407g,2013,Green Chem,DM300,300,,0.0,4.0,,THF,72.1,0.637,0.48,81.11,0.889,16.8,5.7,8,19.46,29.29,30.0,43.3,1.45,99.50,C1CCCO1,20,CF,O=N(CC(C(C(OC)=O)C(OC)=O)C1=CC=CC=C1)=O
10.1021/op400037h,2013,OPRD,DM300,300,,414.2,4.1,0.009899,THF,72.1,0.637,0.48,81.11,0.889,16.8,5.7,8,19.46,29.29,30.0,25.7,0.86,99.60,C1CCCO1,20,DE,[H][C@@]1([C@@H](C2=CC=NC3=CC=C(C=C23)O)OC(C4=CC=CC=C4)=O)C[C@@H]5CC[N@]1C[C@@H]5C=C
10.1016/j.memsci.2018.12.077,2019,Journal of Membrane Science,DM300,300,,678.6,1,0.001474,MEK,75.1,0.667,0.43,93.3,0.805,16,9,5.1,19.05,47.02,20.0,,,99.70,CC(CC)=O,25,CF,CC(=O)OCC1C(C(C(C(O1)OC2(C(C(C(O2)COC(=O)C)OC(=O)C)OC(=O)C)COC(=O)C)OC(=O)C)OC(=O)C)OC(=O)C
10.1016/j.memsci.2018.12.077,2019,Journal of Membrane Science,DM300,300,,678.6,1,0.001474,MEK,75.1,0.667,0.43,93.3,0.805,16,9,5.1,19.05,47.02,30.0,,,99.70,CC(CC)=O,25,CF,CC(=O)OCC1C(C(C(C(O1)OC2(C(C(C(O2)COC(=O)C)OC(=O)C)OC(=O)C)COC(=O)C)OC(=O)C)OC(=O)C)OC(=O)C
10.1016/j.memsci.2018.12.077,2019,Journal of Membrane Science,DM300,300,,1200.0,1,0.000833,MEK,75.1,0.667,0.43,93.3,0.805,16,9,5.1,19.05,47.02,40.0,,,99.70,CC(CC)=O,25,CF,O=C(C(CC(CC(C(OC)=O)C)(C(OC)=O)C)(CC(C(OC)=O)(CC(C(OC)=O)(CC(C(OC)=O)(CC(C(OC)=O)(CC(C(OC)=O)(CC(C(OC)=O)(CC(C(OC)=O)(CC(C(OC)=O)(CC(C(OC)=O)(C)C)C)C)C)C)C)C)C)C)C)OC
10.1039/c2gc36407g,2013,Green Chem,DM300,300,,1044.0,4.0,0.003831,THF,72.1,0.637,0.48,81.11,0.889,16.8,5.7,8,19.46,29.29,16.0,21.1,1.33,100.00,C1CCCO1,20,CF,[H][C@@]1([C@@H](C2=CC=NC3=CC=C(C=C23)O)OCC4=CC(CO[C@H](C5=CC=NC6=CC=C(C=C56)O)[C@@]7(C[C@@H]8CC[N@]7C[C@@H]8C=C)[H])=CC(CO[C@H](C9=CC=NC%10=CC=C(C=C9%10)O)[C@@]%11(C[C@@H]%12CC[N@]%11C[C@@H]%12C=C)[H])=C4)C[C@@H]%13CC[N@]1C[C@@H]%13C=C
10.1039/c2gc36407g,2013,Green Chem,DM300,300,,1044.0,4.0,0.003831,THF,72.1,0.637,0.48,81.11,0.889,16.8,5.7,8,19.46,29.29,30.0,43.3,1.45,100.00,C1CCCO1,20,CF,[H][C@@]1([C@@H](C2=CC=NC3=CC=C(C=C23)O)OCC4=CC(CO[C@H](C5=CC=NC6=CC=C(C=C56)O)[C@@]7(C[C@@H]8CC[N@]7C[C@@H]8C=C)[H])=CC(CO[C@H](C9=CC=NC%10=CC=C(C=C9%10)O)[C@@]%11(C[C@@H]%12CC[N@]%11C[C@@H]%12C=C)[H])=C4)C[C@@H]%13CC[N@]1C[C@@H]%13C=C
10.1039/c2gc36407g,2013,Green Chem,DM300,300,,1044.0,4.0,0.003831,THF,72.1,0.637,0.48,81.11,0.889,16.8,5.7,8,19.46,29.29,8.0,12.7,1.60,100.00,C1CCCO1,20,CF,[H][C@@]1([C@@H](C2=CC=NC3=CC=C(C=C23)O)OCC4=CC(CO[C@H](C5=CC=NC6=CC=C(C=C56)O)[C@@]7(C[C@@H]8CC[N@]7C[C@@H]8C=C)[H])=CC(CO[C@H](C9=CC=NC%10=CC=C(C=C9%10)O)[C@@]%11(C[C@@H]%12CC[N@]%11C[C@@H]%12C=C)[H])=C4)C[C@@H]%13CC[N@]1C[C@@H]%13C=C
10.1039/c2gc36407g,2013,Green Chem,DM300,300,,1044.0,4.0,0.003831,THF,72.1,0.637,0.48,81.11,0.889,16.8,5.7,8,19.46,29.29,20.0,31.1,1.56,100.00,C1CCCO1,20,CF,[H][C@@]1([C@@H](C2=CC=NC3=CC=C(C=C23)O)OCC4=CC(CO[C@H](C5=CC=NC6=CC=C(C=C56)O)[C@@]7(C[C@@H]8CC[N@]7C[C@@H]8C=C)[H])=CC(CO[C@H](C9=CC=NC%10=CC=C(C=C9%10)O)[C@@]%11(C[C@@H]%12CC[N@]%11C[C@@H]%12C=C)[H])=C4)C[C@@H]%13CC[N@]1C[C@@H]%13C=C